108
energy=-1132.86059228 config_type=FromPyNEP pbc="T T T" virial="-38.536366210816794 -46.901360977329894 -52.739808388443166 -46.901360977329894 -85.3066220308732 5.255980332254735 -52.739808388443166 5.255980332254735 -30.226421123600854" Lattice="13.8987348 0.0 0.0 -6.63029962 12.2831938 0.0 0.778191374 0.019032961 13.3289164" Properties=species:S:1:pos:R:3:force:R:3
O   3.09610000e+00  9.62933000e+00  6.75998000e+00  6.13600000e-02 -5.62617000e-01  1.10804000e-01
O   9.58114000e+00  5.34091000e+00  6.53931000e+00 -5.09755000e-01  7.77654000e-01 -1.48540000e-02
O   7.20720000e-01  2.47808000e+00  1.12058200e+01  1.21941600e+00  6.62190000e-02  2.50725000e-01
O   7.32091000e+00  9.83140000e+00  2.10929000e+00 -1.36402800e+00 -2.85378000e-01 -1.34690000e-01
O  -3.90774000e+00  1.10690400e+01  1.12015500e+01  2.80289000e-01 -4.97780000e-02  7.88324000e-01
O   1.19721200e+01  1.21770000e+00  2.11187000e+00 -3.30357000e-01  2.88434000e-01 -8.58664000e-01
O   5.80287000e+00  1.10915400e+01  1.11936600e+01  9.36441000e-01 -1.82379000e+00  1.86556000e-01
O   2.23685000e+00  1.23146000e+00  2.11174000e+00 -4.34610000e-01  1.13338300e+00 -2.25879000e-01
O  -3.92853000e+00  8.01720000e+00  6.67205000e+00 -1.44859000e-01 -1.05695300e+00 -8.14560000e-02
O   2.92293000e+00  4.29323000e+00  6.67400000e+00 -1.07072700e+00  1.29100000e-02  5.71596000e-01
O   9.45869000e+00  1.46700000e-02  6.70298000e+00 -7.37047000e-01  4.43000000e-04 -4.01433000e-01
O  -1.42070000e+00  1.22833300e+01  6.66961000e+00  6.06519000e-01  3.41207000e-01 -1.40010000e-02
O   5.13502000e+00  8.03118000e+00  6.67499000e+00  7.37392000e-01 -5.45958000e-01 -6.20801000e-01
O   1.19822500e+01  4.27044000e+00  6.66803000e+00 -1.51211000e-01  1.03542700e+00  4.50530000e-02
O   2.65243000e+00  3.91077000e+00  2.22302000e+00  3.63510000e-02 -9.67522000e-01 -1.75820000e-01
O   5.40019000e+00  8.37016000e+00  1.11091600e+01  7.41460000e-02  1.59973900e+00  1.94131000e-01
O   9.48568000e+00  1.76660000e-01  2.23005000e+00  2.68562000e-01 -9.26420000e-02  1.28770000e-02
O  -1.44947000e+00  1.21203700e+01  1.10989600e+01  2.67332000e-01 -1.82233000e-01 -2.30749000e-01
O   9.41170000e+00  8.18973000e+00  2.22862000e+00 -8.35943000e-01 -7.24790000e-02 -2.64142000e-01
O  -1.35399000e+00  4.10169000e+00  1.10967200e+01  4.09633000e-01 -1.81698000e-01  3.85733000e-01
O   2.88448000e+00  4.10761000e+00  1.11346300e+01 -8.75446000e-01  2.15204000e-01 -4.88289000e-01
O   5.17945000e+00  8.20024000e+00  2.22161000e+00  5.09799000e-01 -6.82036000e-01  3.51836000e-01
O  -3.67456000e+00  8.38184000e+00  1.11108400e+01 -8.72800000e-02 -2.41112000e-01  1.39076000e-01
O   1.17105700e+01  3.91207000e+00  2.21259000e+00  5.70814000e-01 -3.89200000e-02 -3.00701000e-01
O   5.07241000e+00  2.86030000e+00  2.33491000e+00  2.70872000e-01 -5.18425000e-01  1.31381000e-01
O   3.38421000e+00  1.21293200e+01  1.11264000e+01  1.18951000e-01 -1.03226700e+00 -2.25714000e-01
O   5.37371000e+00  5.33342000e+00  6.56461000e+00 -3.94632000e-01  1.27720000e-02 -7.80792000e-01
O   7.37000000e+00  1.63562000e+00  6.57722000e+00 -1.59003200e+00 -2.34810000e-01 -2.14197000e-01
O   2.22010000e+00  5.45095000e+00  8.88284000e+00 -2.19300000e-02 -1.48440000e-02 -5.10485000e-01
O  -7.48620000e-01  1.09669700e+01  8.89900000e+00 -9.97140000e-02 -1.11769000e-01 -8.16920000e-01
O  -2.39053000e+00  8.19931000e+00  8.89694000e+00  8.95620000e-02  3.23360000e-02 -1.67684000e-01
O   3.86429000e+00  8.19557000e+00  8.89142000e+00 -2.29695000e-01 -2.63580000e-02 -1.82137000e+00
O   8.95286000e+00  6.85788000e+00  4.44415000e+00 -7.46240000e-02 -2.44050000e-02  2.56920000e-02
O   5.67520000e+00  1.33779000e+00  4.45045000e+00  1.32666000e-01 -3.30690000e-02  3.45340000e-02
O   8.80658000e+00  1.35152000e+00  4.44927000e+00  1.25630000e-02 -7.22400000e-03  1.10839000e-01
O   5.83031000e+00  6.85116000e+00  4.45197000e+00 -1.54272000e-01  3.29260000e-02 -8.42259000e-01
O   4.19018000e+00  4.09485000e+00  4.45147000e+00  1.23833000e-01  1.29589000e-01  3.42923000e-01
O   1.04379400e+01  4.09452000e+00  4.44089000e+00 -1.20322000e-01 -1.48938000e-01 -8.73837000e-01
O   1.61211000e+00  2.75583000e+00  5.88000000e-03 -1.04370000e-02  8.31300000e-03 -6.59082000e-01
O   5.65267000e+00  9.51347000e+00  2.13300000e-02 -2.74882000e-01  9.12320000e-02 -1.75479100e+00
O   8.75296000e+00  9.52698000e+00  6.62000000e-03  4.66360000e-02 -4.17690000e-02 -1.31080800e+00
O   1.24123400e+01  2.75135000e+00  7.00000000e-04 -2.34860000e-02  3.82100000e-02  4.19709000e-01
O   4.14853000e+00  1.22733800e+01  4.62000000e-03  1.44427000e-01 -4.71800000e-03  3.58940000e-02
O  -3.49588000e+00  1.22688400e+01  1.16300000e-02 -2.27415000e-01  5.18010000e-02 -1.40815400e+00
O   6.57570000e-01  1.06556700e+01  6.77067000e+00  2.79748500e+00  7.69380000e-02  1.21410000e-02
O   7.88610000e-01  5.73042000e+00  1.10188600e+01 -1.68793300e+00 -1.53042000e-01 -3.11421000e-01
O   2.66439000e+00  6.93524000e+00  6.75911000e+00  1.25228300e+00  1.82584100e+00  6.72138000e-01
O  -1.19754000e+00  9.44306000e+00  1.09932700e+01 -1.01486400e+00 -1.19158400e+00 -5.54661000e-01
O  -1.51791000e+00  6.98032000e+00  6.76228000e+00  8.62926000e-01 -1.75344400e+00  2.37194000e-01
O   2.99730000e+00  9.44564000e+00  1.09873400e+01 -6.90459000e-01  1.40263500e+00 -3.64730000e-02
O   7.25954000e+00  6.54672000e+00  2.33556000e+00  1.75106400e+00  6.76900000e-02 -6.15250000e-02
O   9.25726000e+00  2.85491000e+00  2.32304000e+00  4.96790000e-01  3.65927000e-01  8.17278000e-01
O   4.67813000e+00  1.72920000e-01  2.23112000e+00 -2.43439000e-01  1.17962200e+00  8.09880000e-02
O   2.36909000e+00  1.09506500e+01  8.90687000e+00 -1.50640000e-02 -1.00430000e-02 -1.50359700e+00
O  -1.60787000e+00  6.76862000e+00  1.10078800e+01 -7.33554000e-01  1.11708800e+00  1.74787000e-01
O  -4.09538000e+00  1.08448500e+01  2.11465000e+00 -6.88855000e-01 -7.15858000e-01 -5.90041000e-01
O   1.21443100e+01  1.45723000e+00  1.12197000e+01  5.23569000e-01  4.64064000e-01  5.57754000e-01
O   1.97500000e-01  2.88736000e+00  2.13350000e+00 -1.91297300e+00  5.51840000e-02  1.05926000e-01
O   7.83551000e+00  9.42931000e+00  1.12025900e+01  2.50442900e+00  1.01992000e-01  1.66840000e-02
O  -8.96880000e-01  5.44283000e+00  8.88692000e+00 -4.30430000e-02  3.84330000e-02  2.25957000e-01
O   3.12220000e+00  1.46250000e+00  1.12169700e+01  8.62259000e-01 -1.68252700e+00 -1.69731000e-01
O   9.83757000e+00  2.65748000e+00  6.57781000e+00 -4.16254000e-01 -3.05825000e-01 -7.37475000e-01
O   4.77774000e+00  5.52283000e+00  2.30982000e+00  1.13294800e+00  1.42188700e+00  7.62131000e-01
O   4.91832000e+00  1.08365000e+01  2.14787000e+00 -4.23601000e-01  8.98358000e-01 -4.96545000e-01
O   7.13119000e+00  1.20856000e+00  2.30591000e+00  8.97086000e-01  2.16820000e-01  2.81474000e-01
O   4.96523000e+00  2.65084000e+00  6.57909000e+00 -6.64669000e-01  1.43359300e+00 -2.34070000e-01
O   9.68622000e+00  5.52226000e+00  2.31098000e+00 -2.05784000e-01 -3.50240000e-02  1.07127000e-01
O   3.26645000e+00  6.77170000e+00  1.10074200e+01 -7.55500000e-01 -5.19385000e-01 -9.97273000e-01
O  -1.81405000e+00  9.64430000e+00  6.75508000e+00  7.88202000e-01  6.38055000e-01  8.91102000e-01
O   9.33440000e-01  1.10893000e+01  1.10129900e+01 -2.01168800e+00 -1.28380000e-01  8.20230000e-02
O   5.34400000e-01  5.32007000e+00  6.74496000e+00  1.76213600e+00  9.32050000e-02  1.65341000e-01
O   7.50392000e+00  6.98982000e+00  6.56762000e+00 -1.81255300e+00 -9.05200000e-02  7.14090000e-02
Si  8.66089000e+00  1.39839000e+00  2.84115000e+00 -2.47551000e-01  1.17885500e+00 -4.18980000e-02
Si  5.96100000e+00  6.79548000e+00  6.04058000e+00  3.24079000e-01 -9.70239000e-01  7.34480000e-01
Si  4.17709000e+00  4.11277000e+00  2.83229000e+00 -9.32125000e-01 -6.61710000e-02 -1.33338000e-01
Si  1.04572000e+01  4.07650000e+00  6.04208000e+00  7.21436000e-01 -1.30403000e-01  8.15773000e-01
Si  1.67070000e+00  2.70597000e+00  1.60019000e+00  2.47473600e+00 -1.09528000e-01  8.60825000e-01
Si  6.35933000e+00  9.62300000e+00  1.17163900e+01 -2.17865100e+00 -8.58561000e-01  1.55070000e-02
Si  4.32011000e+00  1.22725400e+01  1.60948000e+00  1.39763400e+00  5.80050000e-02  2.04838000e-01
Si  1.15521600e+01  2.13400000e-02  1.17141800e+01 -1.56089700e+00  1.08676800e+00  1.31382000e-01
Si -5.07935000e+00  9.59766000e+00  1.59815000e+00  1.54570500e+00  3.45351000e-01  1.14715200e+00
Si  1.31146400e+01  2.69112000e+00  1.17311800e+01 -8.61726000e-01  1.22266000e-01 -8.17383000e-01
Si  2.27718000e+00  2.69511000e+00  1.17196700e+01 -8.27431000e-01  1.71810100e+00  1.52291000e-01
Si  5.76625000e+00  9.57785000e+00  1.59515000e+00  5.51961000e-01  4.24078000e-01  1.33172100e+00
Si  9.40502000e+00  9.59984000e+00  1.17118700e+01 -1.08285600e+00  1.64193800e+00  5.58285000e-01
Si -1.33718000e+00  2.70542000e+00  1.60770000e+00  3.59520000e-02 -1.78064900e+00  7.56480000e-02
Si  5.81395000e+00  1.39691000e+00  6.05860000e+00  2.55878000e-01 -3.27012000e-01  1.16705000e-01
Si  3.72483000e+00  2.47900000e-02  1.17050200e+01 -1.14044400e+00 -3.34618000e-01  1.19195000e+00
Si  8.81588000e+00  6.78018000e+00  2.83669000e+00  1.49264000e-01  7.76853000e-01 -1.29569000e-01
Si -6.20540000e-01  1.08793600e+01  1.04961400e+01  8.26031000e-01 -1.59039000e-01  3.90750000e-02
Si  8.86524000e+00  1.41785000e+00  6.06512000e+00  1.43042000e+00  3.15110000e-02  1.83832000e-01
Si  2.41682000e+00  1.09180900e+01  1.05000800e+01  1.94520900e+00  1.48620000e-02  9.11687000e-01
Si -9.53200000e-01  5.49571000e+00  7.27194000e+00 -1.75716400e+00 -1.65890000e-02 -3.26935000e-01
Si -2.22293000e+00  8.18269000e+00  1.04941300e+01  1.88685000e+00  8.58216000e-01 -1.95207000e-01
Si  3.68654000e+00  8.20874000e+00  7.27360000e+00 -1.83585000e+00 -9.26461000e-01  5.96200000e-01
Si  2.28144000e+00  5.51136000e+00  1.04837000e+01  1.78378100e+00  3.47583000e-01  1.15255900e+00
Si -8.20740000e-01  1.08973800e+01  7.26653000e+00 -2.12868600e+00 -8.19920000e-01  6.74265000e-01
Si  2.23940000e+00  1.08823900e+01  7.27868000e+00 -8.21399000e-01  8.77291000e-01  3.68790000e-01
Si -7.81190000e-01  5.51026000e+00  1.05074900e+01  1.21938700e+00 -1.09870500e+00 -3.71850000e-01
Si  2.08805000e+00  5.51852000e+00  7.26837000e+00 -1.21269900e+00  2.10998000e-01  5.00916000e-01
Si -2.40027000e+00  8.20700000e+00  7.27056000e+00 -1.05165400e+00  8.90333000e-01 -9.13990000e-02
Si  3.87114000e+00  8.21249000e+00  1.04721400e+01  9.11220000e-01 -1.31609000e+00  1.79075500e+00
Si  8.98995000e+00  6.80210000e+00  6.07074000e+00  2.29976800e+00  2.47757000e-01 -2.70966000e-01
Si  5.63313000e+00  1.41303000e+00  2.83419000e+00 -1.33663700e+00 -9.36633000e-01 -3.16073000e-01
Si  4.35107000e+00  4.10422000e+00  6.06892000e+00  2.70416000e+00 -5.51184000e-01 -8.39164000e-01
Si  1.02624100e+01  4.10353000e+00  2.81951000e+00 -1.56579200e+00 -8.76679000e-01  8.27532000e-01
Si  5.77222000e+00  6.79626000e+00  2.82219000e+00 -2.16400600e+00 -7.83241000e-01  1.73297000e-01
Si -3.48533000e+00  1.22771700e+01  1.61887000e+00  7.76294000e-01 -4.66833000e-01  4.69565000e-01
108
energy=-1136.19683342 config_type=FromPyNEP pbc="T T T" virial="7.233280444786272 0.371120551439843 -1.0998327849729015 0.371120551439843 9.698790349294622 -0.9576633824253789 -1.0998327849729015 -0.9576633824253789 12.012993050726081" Lattice="13.8245882 -1.32e-07 0.0 -6.91229424 11.9724448 0.0 0.0 0.0 13.2416027" Properties=species:S:1:pos:R:3:force:R:3
O   2.43871000e+00  9.37608000e+00  6.71575000e+00 -3.84964000e-01  4.97182000e-01 -8.52260000e-02
O   9.01162000e+00  5.19682000e+00  6.49634000e+00 -9.18630000e-02 -2.08539000e-01  1.42797000e-01
O   2.16000000e-03  2.39979000e+00  1.11323700e+01 -5.52894000e-01 -6.25920000e-02  1.35019000e-01
O   6.90514000e+00  9.57990000e+00  2.09542000e+00  4.34466000e-01 -1.60702000e-01 -2.53420000e-02
O  -4.82352000e+00  1.07734200e+01  1.11281100e+01 -3.50600000e-01 -4.53461000e-01  3.92790000e-02
O   1.17535700e+01  1.18354000e+00  2.09800000e+00  3.27666000e-01  7.50782000e-01 -1.49174000e-01
O   4.83523000e+00  1.07959200e+01  1.11202100e+01  5.23978000e-01 -8.57640000e-01  7.50070000e-02
O   2.07016000e+00  1.19730000e+00  2.09787000e+00 -2.13350000e-02  1.91268000e-01 -9.77540000e-02
O  -4.50153000e+00  7.80502000e+00  6.62839000e+00 -2.49673000e-01 -1.95100000e-03  1.62640000e-02
O   2.40996000e+00  4.17563000e+00  6.63034000e+00 -3.97784000e-01 -1.57869000e-01  1.66981000e-01
O   9.02124000e+00  5.15000000e-03  6.65933000e+00 -1.45135000e-01  1.67766000e-01 -3.01669000e-01
O  -2.11758000e+00  1.19630700e+01  6.62595000e+00 -3.79890000e-02  3.40107000e-01 -1.74147000e-01
O   4.51365000e+00  7.81900000e+00  6.63134000e+00  1.17808000e-01 -3.60705000e-01 -2.35281000e-01
O   1.14209200e+01  4.15284000e+00  6.62438000e+00 -1.18623000e-01 -3.67120000e-02 -7.13150000e-02
O   2.40810000e+00  3.80852000e+00  2.20847000e+00 -4.47430000e-02  6.39160000e-02 -6.70510000e-02
O   4.51019000e+00  8.14263000e+00  1.10364000e+01  2.00725000e-01  6.74034000e-01  1.68210000e-01
O   9.30140000e+00  1.68990000e-01  2.21549000e+00  7.50229000e-01 -2.16990000e-01 -2.84671000e-01
O  -2.39952000e+00  1.17982600e+01  1.10262000e+01 -2.87254000e-01 -2.85600000e-02  1.02481000e-01
O   9.02093000e+00  7.97939000e+00  2.21407000e+00 -2.71817000e-01  3.23280000e-02 -1.51533000e-01
O  -2.09755000e+00  3.98224000e+00  1.10239600e+01 -1.95903000e-01 -3.68117000e-01  2.93984000e-01
O   2.11834000e+00  3.98817000e+00  1.10618700e+01 -3.17069000e-01  3.97572000e-01 -3.86486000e-01
O   4.81125000e+00  7.98990000e+00  2.20706000e+00 -1.42174000e-01 -8.51375000e-01  2.80211000e-01
O  -4.51620000e+00  8.15431000e+00  1.10380800e+01  4.60612000e-01 -3.61983000e-01 -1.90730000e-01
O   1.14178900e+01  3.80982000e+00  2.19803000e+00  2.70370000e-02  7.21020000e-02  2.59010000e-02
O   4.83628000e+00  2.78453000e+00  2.31967000e+00 -1.86160000e-01  5.29418000e-01 -5.38510000e-02
O   2.40838000e+00  1.18072100e+01  1.10536400e+01  1.97410000e-02  2.89860000e-02 -1.09390000e-01
O   4.82649000e+00  5.18934000e+00  6.52164000e+00  2.37732000e-01  4.04797000e-01 -3.41340000e-02
O   6.90755000e+00  1.58494000e+00  6.53425000e+00  2.16316000e-01 -1.16496000e-01 -1.24959000e-01
O   1.55189000e+00  5.30086000e+00  8.82464000e+00 -6.05670000e-02 -7.25840000e-02 -2.61746000e-01
O  -1.54343000e+00  1.06773600e+01  8.84079000e+00  2.63000000e-04 -6.20000000e-02 -1.18840900e+00
O  -3.10539000e+00  7.97945000e+00  8.83873000e+00 -1.36070000e-02 -1.71950000e-02 -7.44293000e-01
O   3.11614000e+00  7.97571000e+00  8.83321000e+00 -4.31200000e-02  2.35090000e-02 -1.40624600e+00
O   8.47008000e+00  6.67820000e+00  4.41504000e+00 -9.74750000e-02 -2.42400000e-03  3.44804000e-01
O   5.35232000e+00  1.29762000e+00  4.42134000e+00  1.56103000e-01 -4.03690000e-02 -2.38302000e-01
O   8.46705000e+00  1.31135000e+00  4.42017000e+00 -5.67280000e-02 -5.11000000e-02  4.51100000e-01
O   5.36418000e+00  6.67148000e+00  4.42287000e+00 -5.78410000e-02  6.97690000e-02 -1.27048100e+00
O   3.80400000e+00  3.98492000e+00  4.42237000e+00  1.33410000e-02  7.31620000e-02 -1.50508000e-01
O   1.00184700e+01  3.98459000e+00  4.41179000e+00  1.86690000e-02 -9.43310000e-02 -4.19738000e-01
O   1.53216000e+00  2.68607000e+00  5.88000000e-03 -1.73880000e-02  2.24880000e-02 -5.07120000e-01
O   5.37647000e+00  9.27247000e+00  2.13300000e-02 -1.82184000e-01  8.54350000e-02 -2.16491300e+00
O   8.46013000e+00  9.28599000e+00  6.62000000e-03  3.29310000e-02 -8.96840000e-02 -1.12257000e+00
O   1.22749000e+01  2.68159000e+00  7.00000000e-04  2.30620000e-02  9.44320000e-02  1.51554000e-01
O   3.80903000e+00  1.19626300e+01  4.62000000e-03  5.71040000e-02 -6.13710000e-02 -4.96020000e-01
O  -3.79452000e+00  1.19580900e+01  1.16300000e-02 -7.41640000e-02  1.04584000e-01 -9.88759000e-01
O  -1.43000000e-02  1.03765700e+01  6.72632000e+00  1.06154600e+00  1.92150000e-02  9.97100000e-03
O  -2.53000000e-03  5.56981000e+00  1.09467900e+01  3.73650000e-02 -4.14680000e-02 -2.40811000e-01
O   2.07729000e+00  6.74955000e+00  6.71477000e+00  9.82749000e-01  2.05181400e+00 -4.93100000e-02
O  -2.07345000e+00  9.18904000e+00  1.09211900e+01 -6.27737000e-01 -1.20940400e+00  1.79585000e-01
O  -2.08273000e+00  6.79463000e+00  6.71794000e+00  4.76443000e-01 -8.53419000e-01  1.24854000e-01
O   2.09911000e+00  9.19162000e+00  1.09152700e+01 -2.86172000e-01  4.44208000e-01  1.02615000e-01
O   6.91635000e+00  6.37754000e+00  2.32032000e+00 -1.54534000e-01 -3.85940000e-02 -1.55328000e-01
O   8.99884000e+00  2.77914000e+00  2.30780000e+00 -8.15070000e-02  3.58060000e-02  9.08180000e-02
O   4.51963000e+00  1.65250000e-01  2.21656000e+00 -1.52714000e-01  1.42280000e-01 -5.12900000e-03
O   1.55763000e+00  1.06610400e+01  8.84866000e+00  1.44740000e-02  8.08200000e-03 -1.35565100e+00
O  -2.41349000e+00  6.58217000e+00  1.09356900e+01 -3.25186000e-01  6.27670000e-02  3.64897000e-01
O  -4.47757000e+00  1.05675000e+01  2.10068000e+00 -1.12215000e-01 -2.82045000e-01  2.44717000e-01
O   1.13921800e+01  1.40480000e+00  1.11463700e+01 -1.64179000e-01 -1.02662000e-01 -3.58905000e-01
O  -1.92000000e-03  2.81142000e+00  2.11952000e+00  2.10174000e-01  1.36855000e-01  1.78718000e-01
O   6.90061000e+00  9.17547000e+00  1.11292500e+01  5.49237000e-01  6.87810000e-02  3.02400000e-03
O  -1.54844000e+00  5.29274000e+00  8.82871000e+00 -2.00020000e-02  3.93910000e-02  2.36310000e-02
O   2.41813000e+00  1.41007000e+00  1.11436400e+01  4.44060000e-01 -6.36273000e-01 -3.07059000e-01
O   9.33454000e+00  2.58095000e+00  6.53473000e+00  2.47971000e-01  2.82850000e-01  1.54773000e-01
O   4.47512000e+00  5.37951000e+00  2.29469000e+00  7.31526000e-01  1.28497900e+00 -2.07980000e-02
O   4.48806000e+00  1.05591500e+01  2.13389000e+00 -5.19640000e-02 -2.60630000e-02 -3.51781000e-01
O   6.92779000e+00  1.17458000e+00  2.29078000e+00 -1.12755200e+00  1.22447000e-01  1.34579000e-01
O   4.48829000e+00  2.57431000e+00  6.53601000e+00 -3.08001000e-01  5.52746000e-01 -1.14385000e-01
O   9.35751000e+00  5.37894000e+00  2.29585000e+00 -6.74888000e-01  1.06251800e+00 -1.08502000e-01
O   2.43474000e+00  6.58525000e+00  1.09352300e+01 -2.18708000e-01 -1.01867000e-01 -2.38471000e-01
O  -2.44535000e+00  9.39105000e+00  6.71084000e+00  2.36906000e-01  2.78177000e-01  9.13110000e-02
O   2.50000000e-03  1.07935000e+01  1.09408000e+01  1.05240000e-02 -5.04890000e-02  1.25251000e-01
O   2.32000000e-03  5.17615000e+00  6.70073000e+00 -1.93646000e-01  3.90000000e-04  1.08702000e-01
O   6.90167000e+00  6.80396000e+00  6.52454000e+00  2.75763000e-01 -1.31840000e-02  1.62480000e-01
Si  8.41413000e+00  1.35895000e+00  2.82261000e+00  5.80804000e-01  8.55660000e-02 -2.42143000e-01
Si  5.40211000e+00  6.61506000e+00  6.00091000e+00 -4.50827000e-01  7.07340000e-02  9.86443000e-01
Si  3.88447000e+00  4.00497000e+00  2.81375000e+00 -2.97554000e-01 -8.48661000e-01  4.47527000e-01
Si  9.94417000e+00  3.96445000e+00  6.00241000e+00  7.77760000e-02  5.37797000e-01  3.11883000e-01
Si  1.49845000e+00  2.63548000e+00  1.58963000e+00  5.55940000e-01 -4.67955000e-01  6.63943000e-01
Si  5.39725000e+00  9.36371000e+00  1.16396400e+01 -3.80934000e-01 -6.59567000e-01  2.33795000e-01
Si  3.88626000e+00  1.19596700e+01  1.59892000e+00 -4.38161000e-01 -2.92935000e-01  6.53229000e-01
Si  1.08100300e+01  4.43000000e-03  1.16374300e+01 -8.83185000e-01  2.77276000e-01  6.64794000e-01
Si -5.39380000e+00  9.35263000e+00  1.58759000e+00 -2.89450000e-02 -1.09502000e-01  9.59085000e-01
Si  1.22947600e+01  2.60637000e+00  1.16544300e+01  7.78693000e-01  7.53220000e-01 -5.41471000e-01
Si  1.51513000e+00  2.61036000e+00  1.16429200e+01 -2.21494000e-01  9.03636000e-01  2.21561000e-01
Si  5.39396000e+00  9.33282000e+00  1.58458000e+00 -4.37520000e-02  1.26742200e+00  1.32299100e+00
Si  8.42675000e+00  9.34056000e+00  1.16351200e+01 -4.46052000e-01  5.10154000e-01  3.29966000e-01
Si -1.49324000e+00  2.63493000e+00  1.59714000e+00 -8.73246000e-01 -7.61272000e-01  3.59501000e-01
Si  5.39498000e+00  1.35269000e+00  6.01893000e+00 -3.18188000e-01  4.65926000e-01  6.89570000e-02
Si  3.02435000e+00  7.88000000e-03  1.16282600e+01  7.65117000e-01 -1.44900000e-02  8.28222000e-01
Si  8.42920000e+00  6.60454000e+00  2.81815000e+00  7.73181000e-01  4.15180000e-02 -8.09240000e-02
Si -1.50811000e+00  1.05890100e+01  1.04273700e+01  2.06509000e-01  1.09279400e+00  2.06277000e-01
Si  8.42996000e+00  1.37363000e+00  6.02545000e+00 -2.11378000e-01 -5.46826000e-01 -9.88390000e-02
Si  1.51307000e+00  1.06277500e+01  1.04313100e+01 -2.56920000e-02 -3.54592000e-01  6.68695000e-01
Si -1.51246000e+00  5.34635000e+00  7.22429000e+00  8.45250000e-02  4.20188000e-01 -6.09390000e-02
Si -3.03214000e+00  7.96070000e+00  1.04253600e+01  9.18710000e-02  7.93671000e-01  3.40957000e-01
Si  3.03274000e+00  7.99101000e+00  7.22596000e+00 -3.82410000e-02 -9.70421000e-01  5.40020000e-02
Si  1.51748000e+00  5.35722000e+00  1.04149300e+01  3.31314000e-01 -4.44020000e-02  1.01558300e+00
Si -1.51978000e+00  1.06118100e+01  7.21888000e+00 -5.06745000e-01 -5.96107000e-01  9.42684000e-01
Si  1.52404000e+00  1.05968200e+01  7.23104000e+00 -4.03720000e-01  4.13370000e-02  4.18570000e-01
Si -1.52884000e+00  5.35612000e+00  1.04387200e+01  7.51076000e-01 -2.24332000e-01 -4.73378000e-01
Si  1.51260000e+00  5.36915000e+00  7.22072000e+00 -6.35805000e-01 -1.18497700e+00  3.85855000e-01
Si -3.02156000e+00  7.98927000e+00  7.22291000e+00 -3.25008000e-01  1.57955000e-01  4.50045000e-01
Si  3.02943000e+00  7.99050000e+00  1.04033700e+01  1.92019000e-01 -6.78439000e-01  1.37971900e+00
Si  8.41487000e+00  6.62168000e+00  6.03107000e+00  3.45037000e-01 -5.92360000e-02 -5.82716000e-01
Si  5.40255000e+00  1.37360000e+00  2.81565000e+00  4.81644000e-01 -7.19572000e-01  1.55910000e-02
Si  3.87054000e+00  3.99217000e+00  6.02926000e+00  6.87894000e-01 -9.34249000e-01 -3.19597000e-01
Si  9.93729000e+00  3.99573000e+00  2.80097000e+00  3.90219000e-01 -7.29298000e-01  4.24854000e-01
Si  5.40185000e+00  6.62062000e+00  2.80364000e+00 -6.65649000e-01 -6.16104000e-01  3.78449000e-01
Si -3.87753000e+00  1.19642900e+01  1.60831000e+00  1.02495000e-01  2.67020000e-01 -1.87430000e-02
108
energy=-1126.44426085 config_type=FromPyNEP pbc="T T T" virial="140.15779951636006 103.44499651712378 34.79945166935744 103.44499651712378 122.67023572019419 75.98628973132385 34.79945166935744 75.98628973132385 -14.094914024607004" Lattice="13.5053085 0.0 0.0 -7.54315669 11.6144962 0.0 -0.137214118 -1.13272587 13.7175579" Properties=species:S:1:pos:R:3:force:R:3
O   1.69895000e+00  8.51994000e+00  7.02310000e+00  5.41869000e-01 -8.62065000e-01  2.71267000e-01
O   8.38809000e+00  4.48760000e+00  6.64203000e+00 -7.09577000e-01  5.68879000e-01 -1.01469000e-01
O  -2.72040000e-01  1.36009000e+00  1.16212800e+01 -2.22686900e+00 -4.59107000e-01 -5.02057000e-01
O   6.09199000e+00  9.12894000e+00  2.08246000e+00  2.07390500e+00  2.72028000e-01  6.32015000e-01
O  -5.54655000e+00  9.49508000e+00  1.16170200e+01 -2.82032400e+00 -3.51021400e+00 -1.59392000e+00
O   1.13892400e+01  9.71210000e-01  2.08504000e+00  2.81137700e+00  3.85579100e+00  1.43429500e+00
O   3.90252000e+00  9.51758000e+00  1.16091300e+01  1.14553700e+00 -1.50978600e+00  2.68477000e-01
O   1.91551000e+00  9.84970000e-01  2.08491000e+00 -5.50970000e-01  7.95364000e-01 -3.37258000e-01
O  -4.98070000e+00  7.00386000e+00  6.86637000e+00  1.11284200e+00  3.32675400e+00  1.77490000e+00
O   2.01157000e+00  3.48611000e+00  6.86832000e+00 -6.45961000e-01 -8.99034000e-01 -9.43990000e-02
O   8.74283000e+00 -5.61210000e-01  6.89730000e+00 -2.40669000e-01  1.64269600e+00 -9.02117000e-01
O  -2.92653000e+00  1.10387600e+01  6.86393000e+00  1.53060000e-01 -1.31285400e+00  5.11373000e-01
O   3.82469000e+00  7.01784000e+00  6.86931000e+00  4.06666000e-01  3.22867000e-01  1.48400000e-02
O   1.08127300e+01  3.46333000e+00  6.86235000e+00 -1.60450600e+00 -3.40761400e+00 -1.90360200e+00
O   2.07854000e+00  3.50425000e+00  2.28779000e+00  1.30540700e+00  3.26372700e+00  1.71208200e+00
O   3.75240000e+00  6.95622000e+00  1.14330300e+01 -1.04612700e+00 -2.35192100e+00 -1.36617200e+00
O   9.05260000e+00 -2.36300000e-02  2.29482000e+00  5.75659000e-01 -9.04503000e-01 -6.31390000e-01
O  -3.23808000e+00  1.05002100e+01  1.14228300e+01 -5.19400000e-02  6.69697000e-01  4.05972000e-01
O   8.26126000e+00  7.55198000e+00  2.29340000e+00 -3.73884000e-01  1.45198600e+00 -7.48302000e-01
O  -2.42524000e+00  2.91899000e+00  1.14205900e+01 -9.75820000e-02 -1.86152000e+00  9.22735000e-01
O   1.69034000e+00  2.92491000e+00  1.14585000e+01 -3.71922000e-01  1.84095000e+00 -9.79681000e-01
O   4.15190000e+00  7.56248000e+00  2.28639000e+00  3.75860000e-02 -2.43421900e+00  9.54067000e-01
O  -5.06420000e+00  6.96791000e+00  1.14347100e+01  3.21327000e-01 -1.08206600e+00 -5.39611000e-01
O   1.08785200e+01  3.50555000e+00  2.27736000e+00  3.01491000e-01  7.26472000e-01  2.78252000e-01
O   4.52204000e+00  2.49997000e+00  2.49128000e+00  3.93565000e-01 -2.27647000e-01  2.30471000e-01
O   1.46033000e+00  1.05091600e+01  1.14502700e+01  1.31199200e+00  3.28693600e+00  1.71046000e+00
O   4.31256000e+00  4.48011000e+00  6.66733000e+00  2.73758200e+00  3.40694600e+00  1.57897000e+00
O   6.57565000e+00  9.95030000e-01  6.67994000e+00  1.81418000e+00  2.84370000e-01  5.28239000e-01
O   1.12102000e+00  4.31661000e+00  9.14194000e+00 -1.70332000e-01 -3.19990000e-02 -9.15704000e-01
O  -2.34951000e+00  9.67403000e+00  9.15810000e+00  9.76950000e-02 -7.10170000e-02 -2.92260000e-01
O  -3.73454000e+00  6.98567000e+00  9.15603000e+00 -7.58870000e-02 -1.39160000e-01 -9.32719000e-01
O   2.50834000e+00  6.98193000e+00  9.15051000e+00  1.96830000e-02  2.46730000e-01 -9.32333000e-01
O   7.82427000e+00  6.17177000e+00  4.57369000e+00 -1.45538000e-01 -2.72585000e-01  1.09442200e+00
O   5.06038000e+00  8.10270000e-01  4.57999000e+00  2.13328000e-01  2.56179000e-01 -1.03632500e+00
O   8.18578000e+00  8.24000000e-01  4.57882000e+00 -1.89899000e-01 -8.04290000e-02 -2.22892000e-01
O   4.70770000e+00  6.16505000e+00  4.58152000e+00  5.23800000e-02  1.11649000e-01 -4.15076000e-01
O   3.32445000e+00  3.48803000e+00  4.58102000e+00 -2.46250000e-02 -3.90980000e-02 -5.29286000e-01
O   9.56026000e+00  3.48770000e+00  4.57044000e+00  9.44780000e-02  5.78050000e-02  2.57410000e-02
O   1.35522000e+00  2.67654000e+00  5.88000000e-03 -4.97110000e-02 -2.07922000e-01  4.65668000e-01
O   4.60327000e+00  8.92406000e+00  2.13300000e-02 -1.32148000e-01  4.38591000e-01 -2.72811500e+00
O   7.69759000e+00  8.93758000e+00  6.62000000e-03 -9.46570000e-02 -2.30550000e-02 -1.63404700e+00
O   1.17680100e+01  2.67205000e+00  7.00000000e-04  1.62580000e-01  5.62570000e-02  8.21228000e-01
O   2.84822000e+00  1.16046800e+01  4.62000000e-03  4.69660000e-02 -1.67416000e-01 -8.21916000e-01
O  -4.41471000e+00  1.16001400e+01  1.16300000e-02 -4.01190000e-02  2.62655000e-01 -5.37009000e-01
O  -7.69760000e-01  9.47580000e+00  7.05659000e+00 -2.30141000e-01 -3.58727000e-01 -5.42054000e-01
O  -4.84020000e-01  4.48301000e+00  1.12511300e+01  1.57230800e+00  3.68664000e-01  3.55276000e-01
O   1.50386000e+00  5.96810000e+00  7.04504000e+00 -7.90469000e-01  2.71232000e-01 -1.41138500e+00
O  -2.73697000e+00  7.98293000e+00  1.12255300e+01  1.41262700e+00  9.89871000e-01  1.60871900e+00
O  -2.54656000e+00  6.01318000e+00  7.04820000e+00  1.06458600e+00 -1.46931100e+00  3.22096000e-01
O   1.32598000e+00  7.98551000e+00  1.12196100e+01 -9.27497000e-01  1.17460200e+00 -1.45757000e-01
O   6.31048000e+00  5.97367000e+00  2.49194000e+00 -1.78100000e+00 -4.65853000e-01 -8.00906000e-01
O   8.57501000e+00  2.49459000e+00  2.47941000e+00 -2.42802400e+00 -2.83797100e+00 -1.48825800e+00
O   4.38032000e+00 -2.73700000e-02  2.29589000e+00 -1.49164700e+00 -3.15782900e+00 -1.73888500e+00
O   7.62220000e-01  9.65772000e+00  9.16597000e+00 -8.19100000e-03 -1.44504000e-01 -3.76474000e-01
O  -2.91068000e+00  5.45074000e+00  1.12629400e+01 -1.35703500e+00  1.47429700e+00  1.92390000e-02
O  -5.08639000e+00  1.00719100e+01  2.11062000e+00  2.34218800e+00  2.90589500e+00  2.02086100e+00
O   1.09136300e+01  4.09720000e-01  1.16123800e+01 -2.92287700e+00 -3.76742600e+00 -2.37902600e+00
O  -2.09170000e-01  2.55911000e+00  2.12946000e+00  1.48729000e+00  3.53504000e-01  7.38055000e-01
O   6.02050000e+00  7.93711000e+00  1.15952600e+01 -4.27782000e-01 -1.28420000e-01 -4.10159000e-01
O  -1.98998000e+00  4.30849000e+00  9.14601000e+00  2.99170000e-02  2.71563000e-01 -7.76580000e-01
O   2.15963000e+00  4.14990000e-01  1.16096500e+01  1.47068300e+00 -1.97183900e+00  2.26340000e-02
O   8.88771000e+00  1.94642000e+00  6.70333000e+00  2.87373000e+00  3.81441200e+00  2.15170900e+00
O   3.98418000e+00  5.02026000e+00  2.44340000e+00 -1.32446500e+00 -1.24194300e+00 -1.57259100e+00
O   3.65920000e+00  1.00635600e+01  2.14384000e+00 -9.17978000e-01  1.15131300e+00 -6.40618000e-01
O   6.66616000e+00  9.30000000e-01  2.43949000e+00 -2.50013400e+00 -1.51434000e-01 -3.94874000e-01
O   4.14069000e+00  1.93977000e+00  6.70461000e+00 -1.20691000e+00  1.73737100e+00 -3.81570000e-01
O   8.76735000e+00  5.01969000e+00  2.44456000e+00  2.16364000e-01 -2.87654000e-01  3.24935000e-01
O   1.83832000e+00  5.45382000e+00  1.12624800e+01  2.01838300e+00  2.87503800e+00  1.40553800e+00
O  -3.08588000e+00  8.53491000e+00  7.01820000e+00 -2.12908300e+00 -2.76755200e+00 -1.62835100e+00
O  -8.23220000e-01  9.54740000e+00  1.12680500e+01  1.16024700e+00  1.96230000e-01  5.81213000e-01
O  -4.08910000e-01  4.43469000e+00  7.00809000e+00 -1.37862300e+00 -2.51695000e-01 -3.55757000e-01
O   6.22555000e+00  6.05475000e+00  6.69314000e+00  1.48653700e+00  2.22156000e-01  6.97495000e-01
Si  8.11017000e+00  1.05750000e+00  2.96354000e+00  1.44824600e+00 -9.66164000e-01  1.75058200e+00
Si  4.76831000e+00  5.92273000e+00  6.17728000e+00 -1.26730000e+00  1.10125200e+00 -1.09478300e+00
Si  3.48209000e+00  3.64233000e+00  2.95468000e+00  7.45694000e-01 -1.82740700e+00  2.58968100e+00