       N       E                     dE             d eps       ncg     rms          rms(c)
DAV:   1     0.197379408282E+03    0.19738E+03   -0.70822E+03  9992   0.139E+03
DAV:   2    -0.847944215287E+01   -0.20586E+03   -0.17163E+03 16920   0.202E+02
DAV:   3    -0.378045636759E+02   -0.29325E+02   -0.27647E+02 12408   0.122E+02
DAV:   4    -0.391388899107E+02   -0.13343E+01   -0.12316E+01 12244   0.282E+01
DAV:   5    -0.391743521492E+02   -0.35462E-01   -0.35400E-01 12376   0.432E+00    0.102E+01
RMM:   6    -0.365279190363E+02    0.26464E+01   -0.40043E+00  9600   0.172E+01    0.522E+00
RMM:   7    -0.361129514008E+02    0.41497E+00   -0.26192E+00  9600   0.131E+01    0.259E+00
RMM:   8    -0.360451022586E+02    0.67849E-01   -0.30551E-01  9601   0.479E+00    0.780E-01
RMM:   9    -0.360301810345E+02    0.14921E-01   -0.64298E-02  9757   0.252E+00    0.277E-01
RMM:  10    -0.360277999303E+02    0.23811E-02   -0.21027E-02  9633   0.112E+00    0.213E-01
RMM:  11    -0.360262942733E+02    0.15057E-02   -0.48095E-03  9880   0.783E-01    0.553E-02
RMM:  12    -0.360263173781E+02   -0.23105E-04   -0.17509E-03  9907   0.325E-01    0.444E-02
RMM:  13    -0.360263783819E+02   -0.61004E-04   -0.10861E-03  9603   0.239E-01    0.488E-02
RMM:  14    -0.360265522347E+02   -0.17385E-03   -0.26844E-04  9701   0.146E-01    0.298E-02
RMM:  15    -0.360270101667E+02   -0.45793E-03   -0.36483E-04  9616   0.113E-01    0.144E-02
RMM:  16    -0.360271080782E+02   -0.97912E-04   -0.54468E-05 10136   0.667E-02    0.186E-02
RMM:  17    -0.360273029224E+02   -0.19484E-03   -0.20478E-05  9621   0.307E-02    0.900E-03
RMM:  18    -0.360273938369E+02   -0.90915E-04   -0.26564E-05  9600   0.336E-02    0.481E-03
RMM:  19    -0.360274492889E+02   -0.55452E-04   -0.45761E-06  9636   0.257E-02    0.165E-03
RMM:  20    -0.360274734691E+02   -0.24180E-04   -0.19193E-06  9905   0.847E-03    0.168E-03
RMM:  21    -0.360274843770E+02   -0.10908E-04   -0.59267E-07  9612   0.660E-03    0.412E-04
RMM:  22    -0.360274924635E+02   -0.80866E-05   -0.57687E-07  9677   0.411E-03    0.151E-03
RMM:  23    -0.360274945413E+02   -0.20778E-05   -0.15199E-07  8795   0.314E-03    0.487E-04
RMM:  24    -0.360274960473E+02   -0.15060E-05   -0.25568E-07  8832   0.309E-03    0.105E-03
RMM:  25    -0.360274965031E+02   -0.45581E-06   -0.46690E-08  8493   0.313E-03    0.388E-04
RMM:  26    -0.360274967621E+02   -0.25903E-06   -0.54610E-08  8512   0.140E-03    0.292E-04
RMM:  27    -0.360274969126E+02   -0.15052E-06   -0.41509E-09  7333   0.103E-03    0.201E-04
RMM:  28    -0.360274970248E+02   -0.11220E-06   -0.17710E-09  6904   0.296E-04    0.768E-05
RMM:  29    -0.360274970580E+02   -0.33139E-07   -0.92601E-10  5947   0.211E-04    0.946E-06
RMM:  30    -0.360274970724E+02   -0.14400E-07   -0.14012E-10  5322   0.101E-04    0.129E-05
RMM:  31    -0.360274970791E+02   -0.67269E-08   -0.22672E-11  3982   0.552E-05    0.148E-05
RMM:  32    -0.360274970812E+02   -0.21075E-08   -0.10432E-11  3933   0.533E-05    0.394E-06
RMM:  33    -0.360274970826E+02   -0.14297E-08   -0.31621E-11  4470   0.617E-05    0.107E-05
RMM:  34    -0.360274970827E+02   -0.77762E-10   -0.28858E-12  3785   0.511E-05
   1 F= -.36496480E+02 E0= -.36496480E+02  d E =-.364965E+02
       N       E                     dE             d eps       ncg     rms          rms(c)
DAV:   1    -0.360302834588E+02   -0.27864E-02   -0.37081E-02 11576   0.197E+00    0.145E-01
RMM:   2    -0.360299800897E+02    0.30337E-03   -0.10044E-03  9625   0.280E-01    0.756E-02
RMM:   3    -0.360299215884E+02    0.58501E-04   -0.55785E-04  9772   0.184E-01    0.232E-02
RMM:   4    -0.360299082038E+02    0.13385E-04   -0.69224E-05  9952   0.132E-01    0.111E-02
RMM:   5    -0.360299061880E+02    0.20158E-05   -0.15537E-05  9812   0.335E-02    0.438E-03
RMM:   6    -0.360299068689E+02   -0.68095E-06   -0.54112E-06 10093   0.215E-02    0.324E-03
RMM:   7    -0.360299077593E+02   -0.89040E-06   -0.11513E-06 10020   0.112E-02    0.242E-03
RMM:   8    -0.360299084425E+02   -0.68312E-06   -0.62123E-07  9694   0.628E-03    0.312E-04
RMM:   9    -0.360299090268E+02   -0.58438E-06   -0.16350E-07 10048   0.377E-03    0.480E-04
RMM:  10    -0.360299099889E+02   -0.96210E-06   -0.84031E-08  9036   0.166E-03    0.477E-04
RMM:  11    -0.360299101135E+02   -0.12462E-06   -0.23336E-08  8576   0.137E-03    0.159E-04
RMM:  12    -0.360299105475E+02   -0.43391E-06   -0.42806E-08  8491   0.102E-03    0.236E-04
RMM:  13    -0.360299106454E+02   -0.97942E-07   -0.10055E-08  7644   0.523E-04    0.119E-04
RMM:  14    -0.360299106987E+02   -0.53311E-07   -0.51818E-09  7549   0.378E-04    0.262E-05
RMM:  15    -0.360299107231E+02   -0.24346E-07   -0.12907E-09  5853   0.249E-04    0.286E-05
RMM:  16    -0.360299107409E+02   -0.17876E-07   -0.94248E-10  5576   0.143E-04    0.197E-05
RMM:  17    -0.360299107445E+02   -0.35559E-08   -0.21666E-10  5292   0.978E-05    0.320E-05
RMM:  18    -0.360299107474E+02   -0.28806E-08   -0.39750E-11  4367   0.681E-05    0.177E-05
RMM:  19    -0.360299107493E+02   -0.19168E-08   -0.14616E-10  5125   0.974E-05    0.147E-05
RMM:  20    -0.360299107496E+02   -0.35061E-09   -0.13240E-11  4334   0.799E-05
   2 F= -.36496611E+02 E0= -.36496611E+02  d E =-.130299E-03
       N       E                     dE             d eps       ncg     rms          rms(c)
DAV:   1    -0.360293664781E+02    0.54427E-03   -0.53138E-03 11392   0.742E-01    0.555E-02
RMM:   2    -0.360293202770E+02    0.46201E-04   -0.11225E-04  9603   0.101E-01    0.284E-02
RMM:   3    -0.360293139305E+02    0.63464E-05   -0.77359E-05  9623   0.673E-02    0.869E-03
RMM:   4    -0.360293120417E+02    0.18888E-05   -0.89200E-06  9802   0.495E-02    0.401E-03
RMM:   5    -0.360293121325E+02   -0.90810E-07   -0.22083E-06  9785   0.128E-02    0.166E-03
RMM:   6    -0.360293122083E+02   -0.75770E-07   -0.78724E-07 10064   0.823E-03    0.126E-03
RMM:   7    -0.360293122853E+02   -0.77013E-07   -0.13950E-07  9870   0.417E-03    0.919E-04
RMM:   8    -0.360293123602E+02   -0.74884E-07   -0.87201E-08  9399   0.239E-03    0.126E-04
RMM:   9    -0.360293124438E+02   -0.83582E-07   -0.22637E-08  9060   0.145E-03    0.188E-04
RMM:  10    -0.360293125698E+02   -0.12599E-06   -0.79116E-09  7512   0.564E-04    0.180E-04
RMM:  11    -0.360293126064E+02   -0.36665E-07   -0.28296E-09  7509   0.522E-04    0.662E-05
RMM:  12    -0.360293126910E+02   -0.84577E-07   -0.45682E-09  7608   0.349E-04    0.870E-05
RMM:  13    -0.360293127223E+02   -0.31270E-07   -0.74746E-10  5888   0.169E-04    0.496E-05
RMM:  14    -0.360293127429E+02   -0.20648E-07   -0.56794E-10  5383   0.154E-04    0.854E-06
RMM:  15    -0.360293127575E+02   -0.14532E-07   -0.14535E-10  5037   0.123E-04    0.951E-06
RMM:  16    -0.360293127675E+02   -0.10077E-07   -0.11539E-10  4866   0.917E-05    0.149E-05
RMM:  17    -0.360293127707E+02   -0.31546E-08   -0.26295E-11  4476   0.846E-05    0.947E-06
RMM:  18    -0.360293127731E+02   -0.24261E-08   -0.12022E-11  3441   0.453E-05    0.631E-06
RMM:  19    -0.360293127741E+02   -0.99681E-09   -0.14781E-11  3729   0.544E-05
   3 F= -.36496869E+02 E0= -.36496869E+02  d E =-.388893E-03
       N       E                     dE             d eps       ncg     rms          rms(c)
DAV:   1    -0.360287152874E+02    0.59749E-03   -0.24767E-03 11668   0.507E-01    0.379E-02
RMM:   2    -0.360286939542E+02    0.21333E-04   -0.52382E-05  9602   0.688E-02    0.194E-02
RMM:   3    -0.360286913176E+02    0.26367E-05   -0.36377E-05  9627   0.461E-02    0.595E-03
RMM:   4    -0.360286904574E+02    0.86013E-06   -0.41612E-06  9802   0.340E-02    0.276E-03
RMM:   5    -0.360286905596E+02   -0.10216E-06   -0.10448E-06  9782   0.880E-03    0.115E-03
RMM:   6    -0.360286906008E+02   -0.41205E-07   -0.37649E-07 10064   0.575E-03    0.856E-04
RMM:   7    -0.360286906437E+02   -0.42927E-07   -0.65903E-08  9702   0.288E-03    0.628E-04
RMM:   8    -0.360286906853E+02   -0.41621E-07   -0.39546E-08  9170   0.161E-03    0.857E-05
RMM:   9    -0.360286907275E+02   -0.42113E-07   -0.11049E-08  8725   0.974E-04    0.131E-04
RMM:  10    -0.360286907925E+02   -0.65047E-07   -0.37571E-09  7297   0.396E-04    0.124E-04
RMM:  11    -0.360286908131E+02   -0.20606E-07   -0.14611E-09  6362   0.366E-04    0.465E-05
RMM:  12    -0.360286908554E+02   -0.42298E-07   -0.17829E-09  6426   0.259E-04    0.519E-05
RMM:  13    -0.360286908740E+02   -0.18555E-07   -0.45396E-10  5703   0.133E-04    0.369E-05
RMM:  14    -0.360286908888E+02   -0.14830E-07   -0.35799E-10  5258   0.157E-04    0.129E-05
RMM:  15    -0.360286908956E+02   -0.68146E-08   -0.93413E-11  4763   0.133E-04    0.129E-05
RMM:  16    -0.360286908996E+02   -0.39538E-08   -0.26997E-11  3775   0.578E-05    0.905E-06
RMM:  17    -0.360286909028E+02   -0.32323E-08   -0.26364E-11  3725   0.524E-05    0.666E-06
RMM:  18    -0.360286909036E+02   -0.85311E-09   -0.28251E-12  3202   0.455E-05
   4 F= -.36496833E+02 E0= -.36496833E+02  d E =-.352491E-03
       N       E                     dE             d eps       ncg     rms          rms(c)
DAV:   1    -0.360289881564E+02   -0.29725E-03   -0.77562E-03 10492   0.828E-01    0.322E-02
RMM:   2    -0.360289768460E+02    0.11310E-04   -0.11702E-04  9601   0.114E-01    0.185E-02
RMM:   3    -0.360289712143E+02    0.56317E-05   -0.46029E-05  9648   0.587E-02    0.447E-03
RMM:   4    -0.360289714888E+02   -0.27454E-06   -0.78145E-06 10085   0.318E-02    0.242E-03
RMM:   5    -0.360289715269E+02   -0.38031E-07   -0.14978E-06  9954   0.109E-02    0.128E-03
RMM:   6    -0.360289715836E+02   -0.56787E-07   -0.28444E-07 10046   0.579E-03    0.745E-04
RMM:   7    -0.360289716761E+02   -0.92485E-07   -0.90226E-08  9958   0.279E-03    0.241E-04
RMM:   8    -0.360289717342E+02   -0.58036E-07   -0.17821E-08  9455   0.116E-03    0.141E-04
RMM:   9    -0.360289719297E+02   -0.19548E-06   -0.20143E-08  8923   0.880E-04    0.133E-04
RMM:  10    -0.360289719434E+02   -0.13771E-07   -0.22680E-09  7211   0.533E-04    0.766E-05
RMM:  11    -0.360289720573E+02   -0.11386E-06   -0.42365E-09  7200   0.309E-04    0.255E-05
RMM:  12    -0.360289721155E+02   -0.58236E-07   -0.16848E-09  6967   0.192E-04    0.254E-05
RMM:  13    -0.360289721604E+02   -0.44911E-07   -0.51071E-10  5253   0.117E-04    0.101E-05
RMM:  14    -0.360289721818E+02   -0.21333E-07   -0.36408E-10  4963   0.967E-05    0.956E-06
RMM:  15    -0.360289721967E+02   -0.14907E-07   -0.11491E-10  4904   0.862E-05    0.616E-06
RMM:  16    -0.360289722040E+02   -0.73680E-08   -0.82815E-11  4503   0.684E-05    0.586E-06
RMM:  17    -0.360289722067E+02   -0.26630E-08   -0.11422E-11  3609   0.497E-05    0.267E-06
RMM:  18    -0.360289722088E+02   -0.21437E-08   -0.18546E-12  3176   0.460E-05    0.136E-06
RMM:  19    -0.360289722097E+02   -0.85947E-09   -0.69145E-13  3006   0.450E-05
   5 F= -.36496938E+02 E0= -.36496938E+02  d E =-.105691E-03
       N       E                     dE             d eps       ncg     rms          rms(c)
DAV:   1    -0.360295739967E+02   -0.60179E-03   -0.43751E-02 10164   0.197E+00    0.762E-02
RMM:   2    -0.360295115062E+02    0.62491E-04   -0.65671E-04  9600   0.272E-01    0.439E-02
RMM:   3    -0.360294805765E+02    0.30930E-04   -0.25957E-04  9656   0.139E-01    0.106E-02
RMM:   4    -0.360294822122E+02   -0.16357E-05   -0.43208E-05 10079   0.754E-02    0.576E-03
RMM:   5    -0.360294825967E+02   -0.38447E-06   -0.84950E-06  9960   0.260E-02    0.303E-03
RMM:   6    -0.360294828847E+02   -0.28795E-06   -0.16118E-06 10045   0.138E-02    0.177E-03
RMM:   7    -0.360294833190E+02   -0.43438E-06   -0.50391E-07  9970   0.663E-03    0.576E-04
RMM:   8    -0.360294835407E+02   -0.22166E-06   -0.98974E-08  9973   0.273E-03    0.334E-04
RMM:   9    -0.360294843320E+02   -0.79131E-06   -0.10479E-07  9608   0.208E-03    0.324E-04
RMM:  10    -0.360294843741E+02   -0.42059E-07   -0.12558E-08  8992   0.128E-03    0.187E-04
RMM:  11    -0.360294848048E+02   -0.43071E-06   -0.21129E-08  8292   0.723E-04    0.589E-05
RMM:  12    -0.360294850135E+02   -0.20870E-06   -0.74670E-09  7286   0.444E-04    0.590E-05
RMM:  13    -0.360294851850E+02   -0.17148E-06   -0.26249E-09  7111   0.273E-04    0.368E-05
RMM:  14    -0.360294852569E+02   -0.71917E-07   -0.14457E-09  6528   0.197E-04    0.247E-05
RMM:  15    -0.360294853084E+02   -0.51561E-07   -0.57418E-10  5824   0.124E-04    0.103E-05
RMM:  16    -0.360294853350E+02   -0.26561E-07   -0.29208E-10  5434   0.985E-05    0.176E-05
RMM:  17    -0.360294853455E+02   -0.10496E-07   -0.66985E-11  4902   0.804E-05    0.337E-06
RMM:  18    -0.360294853514E+02   -0.58710E-08   -0.18218E-11  3885   0.535E-05    0.258E-06
RMM:  19    -0.360294853546E+02   -0.32630E-08   -0.14008E-11  3463   0.498E-05    0.338E-06
RMM:  20    -0.360294853554E+02   -0.73760E-09   -0.25059E-12  3104   0.445E-05
   6 F= -.36497036E+02 E0= -.36497036E+02  d E =-.203124E-03
       N       E                     dE             d eps       ncg     rms          rms(c)
DAV:   1    -0.360295231811E+02   -0.37826E-04   -0.19806E-04 11460   0.132E-01    0.513E-03
RMM:   2    -0.360295229284E+02    0.25263E-06   -0.31078E-06  9600   0.183E-02    0.298E-03
RMM:   3    -0.360295227820E+02    0.14642E-06   -0.11251E-06  9630   0.920E-03    0.686E-04
RMM:   4    -0.360295227857E+02   -0.36252E-08   -0.21193E-07 10146   0.478E-03    0.399E-04
RMM:   5    -0.360295227813E+02    0.43590E-08   -0.35077E-08  9847   0.170E-03    0.198E-04
RMM:   6    -0.360295227820E+02   -0.73783E-09   -0.64354E-09  8577   0.855E-04
   7 F= -.36497053E+02 E0= -.36497053E+02  d E =-.168451E-04
       N       E                     dE             d eps       ncg     rms          rms(c)
DAV:   1    -0.360296369566E+02   -0.11418E-03   -0.17835E-03  9936   0.396E-01    0.154E-02
RMM:   2    -0.360296346637E+02    0.22930E-05   -0.28133E-05  9600   0.549E-02    0.892E-03
RMM:   3    -0.360296332998E+02    0.13639E-05   -0.10172E-05  9630   0.277E-02    0.206E-03
RMM:   4    -0.360296333699E+02   -0.70123E-07   -0.19147E-06 10146   0.144E-02    0.120E-03
RMM:   5    -0.360296333643E+02    0.56439E-08   -0.31727E-07  9926   0.511E-03    0.597E-04
RMM:   6    -0.360296333805E+02   -0.16203E-07   -0.58931E-08  9988   0.256E-03    0.315E-04
RMM:   7    -0.360296334039E+02   -0.23393E-07   -0.19002E-08  9483   0.121E-03    0.959E-05
RMM:   8    -0.360296334317E+02   -0.27874E-07   -0.41917E-09  7872   0.556E-04    0.613E-05
RMM:   9    -0.360296334918E+02   -0.60042E-07   -0.40430E-09  7182   0.364E-04    0.333E-05
RMM:  10    -0.360296335039E+02   -0.12149E-07   -0.55346E-10  6243   0.186E-04    0.254E-05
RMM:  11    -0.360296335542E+02   -0.50245E-07   -0.17120E-09  7061   0.182E-04    0.125E-05
RMM:  12    -0.360296335689E+02   -0.14763E-07   -0.46716E-10  5281   0.114E-04    0.910E-06
RMM:  13    -0.360296335861E+02   -0.17166E-07   -0.21798E-10  4494   0.824E-05    0.327E-06
RMM:  14    -0.360296335920E+02   -0.58549E-08   -0.75511E-11  4081   0.648E-05    0.265E-06
RMM:  15    -0.360296335985E+02   -0.65384E-08   -0.50908E-11  3834   0.568E-05    0.186E-06
RMM:  16    -0.360296336000E+02   -0.14943E-08   -0.17101E-11  3573   0.518E-05    0.144E-06
RMM:  17    -0.360296336008E+02   -0.84765E-09   -0.10124E-12  3004   0.449E-05
   8 F= -.36497102E+02 E0= -.36497102E+02  d E =-.666268E-04
       N       E                     dE             d eps       ncg     rms          rms(c)
DAV:   1    -0.360298614304E+02   -0.22783E-03   -0.71240E-03 10160   0.791E-01    0.307E-02
RMM:   2    -0.360298523628E+02    0.90676E-05   -0.11164E-04  9600   0.110E-01    0.178E-02
RMM:   3    -0.360298468393E+02    0.55235E-05   -0.40346E-05  9630   0.551E-02    0.410E-03
RMM:   4    -0.360298471632E+02   -0.32390E-06   -0.76160E-06 10146   0.287E-02    0.240E-03
RMM:   5    -0.360298471820E+02   -0.18785E-07   -0.12640E-06  9926   0.102E-02    0.119E-03
RMM:   6    -0.360298472561E+02   -0.74082E-07   -0.23373E-07 10052   0.511E-03    0.628E-04
RMM:   7    -0.360298473520E+02   -0.95867E-07   -0.76230E-08 10001   0.242E-03    0.192E-04
RMM:   8    -0.360298474452E+02   -0.93260E-07   -0.16855E-08  9376   0.111E-03    0.123E-04
RMM:   9    -0.360298476508E+02   -0.20557E-06   -0.15712E-08  8008   0.708E-04    0.681E-05
RMM:  10    -0.360298476855E+02   -0.34642E-07   -0.20742E-09  7198   0.350E-04    0.516E-05
RMM:  11    -0.360298478532E+02   -0.16775E-06   -0.76605E-09  7241   0.345E-04    0.254E-05
RMM:  12    -0.360298478893E+02   -0.36147E-07   -0.11004E-09  6678   0.188E-04    0.180E-05
RMM:  13    -0.360298479410E+02   -0.51678E-07   -0.76002E-10  5212   0.124E-04    0.686E-06
RMM:  14    -0.360298479546E+02   -0.13553E-07   -0.18614E-10  4414   0.868E-05    0.598E-06
RMM:  15    -0.360298479733E+02   -0.18770E-07   -0.13866E-10  4439   0.747E-05    0.288E-06
RMM:  16    -0.360298479776E+02   -0.43008E-08   -0.41178E-11  4196   0.619E-05    0.391E-06
RMM:  17    -0.360298479804E+02   -0.27112E-08   -0.56219E-12  3325   0.497E-05    0.125E-06
RMM:  18    -0.360298479822E+02   -0.18504E-08   -0.18076E-11  3583   0.496E-05    0.160E-06
RMM:  19    -0.360298479826E+02   -0.37403E-09   -0.33484E-13  2933   0.418E-05
   9 F= -.36497195E+02 E0= -.36497195E+02  d E =-.159596E-03
       N       E                     dE             d eps       ncg     rms          rms(c)
DAV:   1    -0.360303010692E+02   -0.45309E-03   -0.28463E-02 10092   0.158E+00    0.613E-02
RMM:   2    -0.360302656144E+02    0.35455E-04   -0.44544E-04  9600   0.219E-01    0.356E-02
RMM:   3    -0.360302438694E+02    0.21745E-04   -0.16049E-04  9630   0.110E-01    0.817E-03
RMM:   4    -0.360302453379E+02   -0.14686E-05   -0.30383E-05 10146   0.573E-02    0.479E-03
RMM:   5    -0.360302455358E+02   -0.19790E-06   -0.50486E-06  9926   0.204E-02    0.237E-03
RMM:   6    -0.360302458191E+02   -0.28328E-06   -0.93004E-07 10060   0.102E-02    0.125E-03
RMM:   7    -0.360302461590E+02   -0.33991E-06   -0.29994E-07 10018   0.480E-03    0.382E-04
RMM:   8    -0.360302464411E+02   -0.28209E-06   -0.66131E-08  9976   0.221E-03    0.245E-04
RMM:   9    -0.360302470714E+02   -0.63031E-06   -0.56068E-08  9516   0.137E-03    0.133E-04
RMM:  10    -0.360302471695E+02   -0.98134E-07   -0.79401E-09  7845   0.667E-04    0.103E-04
RMM:  11    -0.360302476507E+02   -0.48114E-06   -0.24886E-08  7429   0.619E-04    0.482E-05
RMM:  12    -0.360302477612E+02   -0.11052E-06   -0.41587E-09  7205   0.328E-04    0.371E-05
RMM:  13    -0.360302479058E+02   -0.14460E-06   -0.24606E-09  7016   0.211E-04    0.136E-05
RMM:  14    -0.360302479367E+02   -0.30904E-07   -0.56016E-10  5659   0.125E-04    0.125E-05
RMM:  15    -0.360302479906E+02   -0.53922E-07   -0.52700E-10  5507   0.112E-04    0.113E-05
RMM:  16    -0.360302479980E+02   -0.73328E-08   -0.89436E-11  4629   0.768E-05    0.622E-06
RMM:  17    -0.360302480070E+02   -0.90865E-08   -0.28519E-11  3919   0.547E-05    0.273E-06
RMM:  18    -0.360302480112E+02   -0.41086E-08   -0.18159E-11  3712   0.524E-05    0.239E-06
RMM:  19    -0.360302480130E+02   -0.18276E-08   -0.18582E-12  3099   0.454E-05    0.152E-06
RMM:  20    -0.360302480135E+02   -0.54092E-09   -0.21551E-12  3019   0.437E-05
  10 F= -.36497352E+02 E0= -.36497352E+02  d E =-.315841E-03
       N       E                     dE             d eps       ncg     rms          rms(c)
DAV:   1    -0.360311366581E+02   -0.88865E-03   -0.11358E-01 10088   0.316E+00    0.122E-01
RMM:   2    -0.360310008488E+02    0.13581E-03   -0.17730E-03  9600   0.437E-01    0.710E-02
RMM:   3    -0.360309168053E+02    0.84044E-04   -0.63595E-04  9634   0.219E-01    0.162E-02
RMM:   4    -0.360309231131E+02   -0.63078E-05   -0.11983E-04 10145   0.114E-01    0.956E-03
RMM:   5    -0.360309241969E+02   -0.10838E-05   -0.20203E-05  9929   0.406E-02    0.472E-03
RMM:   6    -0.360309251690E+02   -0.97212E-06   -0.36817E-06 10078   0.204E-02    0.252E-03
RMM:   7    -0.360309262801E+02   -0.11111E-05   -0.11755E-06 10010   0.952E-03    0.766E-04
RMM:   8    -0.360309270708E+02   -0.79074E-06   -0.25807E-07 10069   0.438E-03    0.486E-04
RMM:   9    -0.360309288995E+02   -0.18287E-05   -0.19628E-07  9683   0.268E-03    0.265E-04
RMM:  10    -0.360309291550E+02   -0.25547E-06   -0.29936E-08  9364   0.130E-03    0.203E-04
RMM:  11    -0.360309304662E+02   -0.13112E-05   -0.80729E-08  9478   0.116E-03    0.995E-05
RMM:  12    -0.360309307696E+02   -0.30347E-06   -0.15226E-08  7386   0.649E-04    0.741E-05
RMM:  13    -0.360309311409E+02   -0.37128E-06   -0.71243E-09  7262   0.371E-04    0.264E-05
RMM:  14    -0.360309312313E+02   -0.90429E-07   -0.17764E-09  6804   0.205E-04    0.240E-05
RMM:  15    -0.360309313687E+02   -0.13732E-06   -0.15781E-09  6843   0.170E-04    0.177E-05
RMM:  16    -0.360309313947E+02   -0.26057E-07   -0.29507E-10  5107   0.987E-05    0.127E-05
RMM:  17    -0.360309314184E+02   -0.23656E-07   -0.11271E-10  4454   0.763E-05    0.367E-06
RMM:  18    -0.360309314267E+02   -0.83551E-08   -0.32345E-11  4287   0.625E-05    0.454E-06
RMM:  19    -0.360309314315E+02   -0.47821E-08   -0.17132E-11  3857   0.545E-05    0.256E-06
RMM:  20    -0.360309314344E+02   -0.28581E-08   -0.13502E-11  3455   0.475E-05    0.860E-07
RMM:  21    -0.360309314351E+02   -0.73487E-09   -0.20959E-12  3031   0.433E-05
  11 F= -.36497552E+02 E0= -.36497552E+02  d E =-.516032E-03
       N       E                     dE             d eps       ncg     rms          rms(c)
DAV:   1    -0.360325924801E+02   -0.16610E-02   -0.45226E-01  9968   0.631E+00    0.242E-01
RMM:   2    -0.360320949587E+02    0.49752E-03   -0.70276E-03  9601   0.872E-01    0.141E-01
RMM:   3    -0.360317780771E+02    0.31688E-03   -0.24911E-03  9640   0.436E-01    0.318E-02
RMM:   4    -0.360318046187E+02   -0.26542E-04   -0.46890E-04 10144   0.227E-01    0.191E-02
RMM:   5    -0.360318095183E+02   -0.48996E-05   -0.79963E-05  9936   0.807E-02    0.934E-03
RMM:   6    -0.360318124042E+02   -0.28859E-05   -0.14309E-05 10106   0.403E-02    0.502E-03
RMM:   7    -0.360318156524E+02   -0.32482E-05   -0.44421E-06  9986   0.185E-02    0.151E-03
RMM:   8    -0.360318176381E+02   -0.19857E-05   -0.99261E-07 10125   0.863E-03    0.947E-04
RMM:   9    -0.360318226195E+02   -0.49814E-05   -0.66995E-07  9677   0.513E-03    0.524E-04
RMM:  10    -0.360318232024E+02   -0.58292E-06   -0.10802E-07 10113   0.253E-03    0.396E-04
RMM:  11    -0.360318264707E+02   -0.32683E-05   -0.24441E-07  9604   0.215E-03    0.198E-04
RMM:  12    -0.360318272885E+02   -0.81782E-06   -0.54614E-08  8760   0.125E-03    0.151E-04
RMM:  13    -0.360318281904E+02   -0.90187E-06   -0.20075E-08  7566   0.683E-04    0.519E-05
RMM:  14    -0.360318284251E+02   -0.23470E-06   -0.55923E-09  7249   0.370E-04    0.466E-05
RMM:  15    -0.360318287708E+02   -0.34568E-06   -0.43919E-09  7214   0.298E-04    0.388E-05
RMM:  16    -0.360318288461E+02   -0.75342E-07   -0.10121E-09  6395   0.193E-04    0.223E-05
RMM:  17    -0.360318288991E+02   -0.52984E-07   -0.35914E-10  5031   0.105E-04    0.106E-05
RMM:  18    -0.360318289297E+02   -0.30626E-07   -0.18006E-10  5652   0.981E-05    0.113E-05
RMM:  19    -0.360318289389E+02   -0.91495E-08   -0.43826E-11  4869   0.716E-05    0.631E-06
RMM:  20    -0.360318289486E+02   -0.97448E-08   -0.42427E-11  3896   0.516E-05    0.237E-06
RMM:  21    -0.360318289505E+02   -0.18606E-08   -0.23200E-12  3153   0.437E-05    0.139E-06
RMM:  22    -0.360318289524E+02   -0.19122E-08   -0.15202E-12  3064   0.458E-05    0.641E-07
RMM:  23    -0.360318289526E+02   -0.25420E-09   -0.24869E-13  2974   0.456E-05
  12 F= -.36497495E+02 E0= -.36497495E+02  d E =-.459063E-03
       N       E                     dE             d eps       ncg     rms          rms(c)
DAV:   1    -0.360316731635E+02    0.15579E-03   -0.61483E-02 10536   0.233E+00    0.893E-02
RMM:   2    -0.360316058041E+02    0.67359E-04   -0.96184E-04  9601   0.322E-01    0.519E-02
RMM:   3    -0.360315614855E+02    0.44319E-04   -0.33320E-04  9634   0.159E-01    0.117E-02
RMM:   4    -0.360315652240E+02   -0.37385E-05   -0.64473E-05 10167   0.815E-02    0.691E-03
RMM:   5    -0.360315662360E+02   -0.10120E-05   -0.10234E-05  9931   0.293E-02    0.350E-03
RMM:   6    -0.360315673998E+02   -0.11638E-05   -0.19348E-06 10036   0.147E-02    0.175E-03
RMM:   7    -0.360315684818E+02   -0.10820E-05   -0.64700E-07 10005   0.692E-03    0.523E-04
RMM:   8    -0.360315691093E+02   -0.62752E-06   -0.14654E-07 10105   0.325E-03    0.340E-04
RMM:   9    -0.360315704088E+02   -0.12995E-05   -0.14427E-07  9649   0.213E-03    0.175E-04
RMM:  10    -0.360315705373E+02   -0.12844E-06   -0.23646E-08  8622   0.993E-04    0.137E-04
RMM:  11    -0.360315712522E+02   -0.71494E-06   -0.70198E-08  8402   0.105E-03    0.658E-05
RMM:  12    -0.360315714267E+02   -0.17445E-06   -0.25131E-08  7342   0.581E-04    0.520E-05
RMM:  13    -0.360315715149E+02   -0.88239E-07   -0.52523E-09  7244   0.335E-04    0.221E-05
RMM:  14    -0.360315715484E+02   -0.33448E-07   -0.27208E-09  6784   0.233E-04    0.175E-05
RMM:  15    -0.360315715724E+02   -0.24041E-07   -0.16296E-09  6436   0.178E-04    0.207E-05
RMM:  16    -0.360315715739E+02   -0.15164E-08   -0.23149E-10  5023   0.119E-04    0.104E-05
RMM:  17    -0.360315715763E+02   -0.23676E-08   -0.49397E-11  4287   0.676E-05    0.446E-06
RMM:  18    -0.360315715776E+02   -0.12756E-08   -0.26097E-11  4136   0.588E-05    0.439E-06
RMM:  19    -0.360315715784E+02   -0.88926E-09   -0.40681E-12  3351   0.480E-05
  13 F= -.36497586E+02 E0= -.36497586E+02  d E =-.549750E-03
       N       E                     dE             d eps       ncg     rms          rms(c)
DAV:   1    -0.360319516524E+02   -0.38007E-03   -0.12988E-02 10296   0.107E+00    0.444E-02
RMM:   2    -0.360319353919E+02    0.16260E-04   -0.20576E-04  9601   0.151E-01    0.257E-02
RMM:   3    -0.360319254583E+02    0.99336E-05   -0.77609E-05  9676   0.761E-02    0.557E-03
RMM:   4    -0.360319259875E+02   -0.52917E-06   -0.13797E-05 10110   0.406E-02    0.314E-03
RMM:   5    -0.360319260877E+02   -0.10020E-06   -0.26161E-06  9983   0.143E-02    0.169E-03
RMM:   6    -0.360319262626E+02   -0.17493E-06   -0.47109E-07 10030   0.736E-03    0.961E-04
RMM:   7    -0.360319264787E+02   -0.21609E-06   -0.15112E-07  9939   0.366E-03    0.314E-04
RMM:   8    -0.360319266141E+02   -0.13538E-06   -0.33547E-08  9775   0.157E-03    0.181E-04
RMM:   9    -0.360319271098E+02   -0.49568E-06   -0.45891E-08  9431   0.115E-03    0.156E-04
RMM:  10    -0.360319271282E+02   -0.18431E-07   -0.42323E-09  7435   0.591E-04    0.105E-04
RMM:  11    -0.360319273434E+02   -0.21514E-06   -0.68860E-09  7322   0.401E-04    0.402E-05
RMM:  12    -0.360319274781E+02   -0.13475E-06   -0.45326E-09  7228   0.296E-04    0.354E-05
RMM:  13    -0.360319275608E+02   -0.82732E-07   -0.10801E-09  6403   0.165E-04    0.251E-05
RMM:  14    -0.360319276000E+02   -0.39154E-07   -0.53545E-10  5710   0.142E-04    0.906E-06
RMM:  15    -0.360319276208E+02   -0.20764E-07   -0.18700E-10  4969   0.106E-04    0.862E-06
RMM:  16    -0.360319276414E+02   -0.20665E-07   -0.16863E-10  4890   0.874E-05    0.756E-06
RMM:  17    -0.360319276454E+02   -0.40077E-08   -0.26811E-11  4115   0.659E-05    0.280E-06
RMM:  18    -0.360319276497E+02   -0.42521E-08   -0.10821E-11  3468   0.465E-05    0.132E-06
RMM:  19    -0.360319276512E+02   -0.14732E-08   -0.67912E-12  3180   0.432E-05    0.770E-07
RMM:  20    -0.360319276516E+02   -0.47612E-09   -0.44442E-13  2949   0.409E-05
  14 F= -.36497730E+02 E0= -.36497730E+02  d E =-.144442E-03
       N       E                     dE             d eps       ncg     rms          rms(c)
DAV:   1    -0.360331601302E+02   -0.12325E-02   -0.11658E-01 10172   0.321E+00    0.133E-01
RMM:   2    -0.360330204871E+02    0.13964E-03   -0.18399E-03  9601   0.451E-01    0.770E-02
RMM:   3    -0.360329355794E+02    0.84908E-04   -0.69315E-04  9684   0.228E-01    0.166E-02
RMM:   4    -0.360329411094E+02   -0.55299E-05   -0.12119E-04 10102   0.121E-01    0.942E-03
RMM:   5    -0.360329426610E+02   -0.15516E-05   -0.23782E-05  9995   0.427E-02    0.505E-03
RMM:   6    -0.360329438946E+02   -0.12336E-05   -0.41973E-06 10046   0.221E-02    0.290E-03
RMM:   7    -0.360329453748E+02   -0.14802E-05   -0.13204E-06  9933   0.109E-02    0.955E-04
RMM:   8    -0.360329460589E+02   -0.68408E-06   -0.29427E-07 10080   0.464E-03    0.538E-04
RMM:   9    -0.360329488551E+02   -0.27962E-05   -0.33974E-07  9641   0.334E-03    0.482E-04
RMM:  10    -0.360329489172E+02   -0.62094E-07   -0.35502E-08  9713   0.175E-03    0.324E-04
RMM:  11    -0.360329499185E+02   -0.10013E-05   -0.44770E-08  8977   0.110E-03    0.117E-04
RMM:  12    -0.360329506467E+02   -0.72824E-06   -0.34470E-08  8070   0.840E-04    0.111E-04
RMM:  13    -0.360329510308E+02   -0.38408E-06   -0.65084E-09  7269   0.412E-04    0.783E-05
RMM:  14    -0.360329512321E+02   -0.20133E-06   -0.32636E-09  7207   0.338E-04    0.255E-05
RMM:  15    -0.360329513454E+02   -0.11323E-06   -0.12212E-09  6366   0.223E-04    0.237E-05
RMM:  16    -0.360329514276E+02   -0.82179E-07   -0.90123E-10  5976   0.168E-04    0.259E-05
RMM:  17    -0.360329514465E+02   -0.18950E-07   -0.19439E-10  5451   0.142E-04    0.739E-06
RMM:  18    -0.360329514644E+02   -0.17911E-07   -0.78598E-11  4768   0.711E-05    0.469E-06
RMM:  19    -0.360329514694E+02   -0.50024E-08   -0.10446E-11  3544   0.479E-05    0.367E-06
RMM:  20    -0.360329514736E+02   -0.41573E-08   -0.18728E-11  3491   0.475E-05    0.122E-06
RMM:  21    -0.360329514747E+02   -0.10805E-08   -0.37024E-12  3068   0.422E-05    0.602E-07
RMM:  22    -0.360329514751E+02   -0.40245E-09   -0.11673E-12  2969   0.415E-05
  15 F= -.36498124E+02 E0= -.36498124E+02  d E =-.538240E-03
       N       E                     dE             d eps       ncg     rms          rms(c)
DAV:   1    -0.360355604782E+02   -0.26090E-02   -0.46345E-01  9924   0.641E+00    0.263E-01
RMM:   2    -0.360350531236E+02    0.50735E-03   -0.72688E-03  9601   0.899E-01    0.153E-01
RMM:   3    -0.360347373826E+02    0.31574E-03   -0.27074E-03  9690   0.451E-01    0.325E-02
RMM:   4    -0.360347609671E+02   -0.23584E-04   -0.47193E-04 10100   0.240E-01    0.188E-02
RMM:   5    -0.360347677338E+02   -0.67668E-05   -0.94173E-05  9993   0.849E-02    0.996E-03
RMM:   6    -0.360347712824E+02   -0.35486E-05   -0.16362E-05 10067   0.438E-02    0.579E-03
RMM:   7    -0.360347755554E+02   -0.42730E-05   -0.50407E-06  9938   0.213E-02    0.190E-03
RMM:   8    -0.360347772199E+02   -0.16645E-05   -0.11253E-06 10089   0.912E-03    0.104E-03
RMM:   9    -0.360347845455E+02   -0.73256E-05   -0.11184E-06  9639   0.639E-03    0.943E-04
RMM:  10    -0.360347846967E+02   -0.15127E-06   -0.12977E-07 10146   0.343E-03    0.626E-04
RMM:  11    -0.360347872628E+02   -0.25660E-05   -0.16069E-07  9629   0.214E-03    0.225E-04
RMM:  12    -0.360347890007E+02   -0.17379E-05   -0.10723E-07  9657   0.157E-03    0.225E-04
RMM:  13    -0.360347899109E+02   -0.91023E-06   -0.18753E-08  7611   0.732E-04    0.134E-04
RMM:  14    -0.360347903752E+02   -0.46432E-06   -0.91855E-09  7540   0.546E-04    0.500E-05
RMM:  15    -0.360347906804E+02   -0.30517E-06   -0.36647E-09  7169   0.357E-04    0.452E-05
RMM:  16    -0.360347908740E+02   -0.19367E-06   -0.28548E-09  6977   0.285E-04    0.495E-05
RMM:  17    -0.360347909236E+02   -0.49509E-07   -0.54226E-10  5763   0.229E-04    0.133E-05
RMM:  18    -0.360347909664E+02   -0.42877E-07   -0.26451E-10  5886   0.110E-04    0.108E-05
RMM:  19    -0.360347909792E+02   -0.12786E-07   -0.45690E-11  4159   0.572E-05    0.813E-06
RMM:  20    -0.360347909919E+02   -0.12684E-07   -0.76199E-11  4334   0.620E-05    0.279E-06
RMM:  21    -0.360347909934E+02   -0.14663E-08   -0.32678E-12  3369   0.469E-05    0.200E-06
RMM:  22    -0.360347909961E+02   -0.27692E-08   -0.50250E-12  3186   0.447E-05    0.132E-06
RMM:  23    -0.360347909968E+02   -0.70872E-09   -0.72613E-13  3067   0.449E-05
  16 F= -.36498726E+02 E0= -.36498726E+02  d E =-.114059E-02
       N       E                     dE             d eps       ncg     rms          rms(c)
DAV:   1    -0.360402065554E+02   -0.54156E-02   -0.18323E+00  9824   0.127E+01    0.516E-01
RMM:   2    -0.360385463952E+02    0.16602E-02   -0.28461E-02  9601   0.179E+00    0.302E-01
RMM:   3    -0.360374462136E+02    0.11002E-02   -0.10404E-02  9725   0.888E-01    0.628E-02
RMM:   4    -0.360375363755E+02   -0.90162E-04   -0.17106E-03 10081   0.465E-01    0.372E-02
RMM:   5    -0.360375636661E+02   -0.27291E-04   -0.37044E-04 10026   0.168E-01    0.192E-02
RMM:   6    -0.360375721341E+02   -0.84680E-05   -0.61866E-05 10070   0.864E-02    0.114E-02
RMM:   7    -0.360375825224E+02   -0.10388E-04   -0.18731E-05  9966   0.408E-02    0.374E-03
RMM:   8    -0.360375858404E+02   -0.33180E-05   -0.41541E-06 10108   0.176E-02    0.192E-03
RMM:   9    -0.360376019121E+02   -0.16072E-04   -0.33453E-06  9631   0.118E-02    0.181E-03
RMM:  10    -0.360376025873E+02   -0.67517E-06   -0.44794E-07 10199   0.665E-03    0.115E-03
RMM:  11    -0.360376091273E+02   -0.65400E-05   -0.65532E-07  9615   0.430E-03    0.437E-04
RMM:  12    -0.360376122784E+02   -0.31511E-05   -0.25601E-07  9788   0.281E-03    0.422E-04
RMM:  13    -0.360376143557E+02   -0.20772E-05   -0.49663E-08  8793   0.127E-03    0.210E-04
RMM:  14    -0.360376153841E+02   -0.10285E-05   -0.25035E-08  8489   0.885E-04    0.899E-05
RMM:  15    -0.360376161492E+02   -0.76506E-06   -0.10364E-08  7350   0.543E-04    0.793E-05
RMM:  16    -0.360376165592E+02   -0.41000E-06   -0.80184E-09  7379   0.481E-04    0.897E-05
RMM:  17    -0.360376166774E+02   -0.11823E-06   -0.14871E-09  6496   0.390E-04    0.184E-05
RMM:  18    -0.360376167622E+02   -0.84829E-07   -0.85372E-10  6403   0.188E-04    0.292E-05
RMM:  19    -0.360376168001E+02   -0.37817E-07   -0.21920E-10  5469   0.968E-05    0.951E-06
RMM:  20    -0.360376168260E+02   -0.25905E-07   -0.16334E-10  4362   0.731E-05    0.553E-06
RMM:  21    -0.360376168342E+02   -0.82582E-08   -0.23093E-11  3842   0.582E-05    0.320E-06
RMM:  22    -0.360376168392E+02   -0.49849E-08   -0.12102E-11  3616   0.542E-05    0.186E-06
RMM:  23    -0.360376168405E+02   -0.13247E-08   -0.84746E-13  3108   0.474E-05    0.911E-07
RMM:  24    -0.360376168411E+02   -0.59299E-09   -0.16555E-12  3053   0.467E-05
  17 F= -.36499154E+02 E0= -.36499154E+02  d E =-.156883E-02
       N       E                     dE             d eps       ncg     rms          rms(c)
DAV:   1    -0.360385853692E+02   -0.96853E-03   -0.87384E-02 10668   0.279E+00    0.115E-01
RMM:   2    -0.360385161476E+02    0.69222E-04   -0.13471E-03  9601   0.389E-01    0.672E-02
RMM:   3    -0.360384670791E+02    0.49068E-04   -0.48141E-04  9738   0.189E-01    0.131E-02
RMM:   4    -0.360384712773E+02   -0.41982E-05   -0.78770E-05 10035   0.974E-02    0.762E-03
RMM:   5    -0.360384727268E+02   -0.14495E-05   -0.17305E-05 10037   0.364E-02    0.427E-03
RMM:   6    -0.360384735505E+02   -0.82370E-06   -0.30535E-06 10085   0.188E-02    0.241E-03
RMM:   7    -0.360384744300E+02   -0.87952E-06   -0.89484E-07  9944   0.925E-03    0.859E-04
RMM:   8    -0.360384747894E+02   -0.35939E-06   -0.20591E-07 10146   0.381E-03    0.420E-04
RMM:   9    -0.360384764350E+02   -0.16457E-05   -0.20120E-07  9637   0.273E-03    0.432E-04
RMM:  10    -0.360384765575E+02   -0.12242E-06   -0.24276E-08  9386   0.160E-03    0.277E-04
RMM:  11    -0.360384772066E+02   -0.64916E-06   -0.31038E-08  8575   0.898E-04    0.898E-05
RMM:  12    -0.360384776260E+02   -0.41936E-06   -0.16994E-08  7678   0.615E-04    0.841E-05
RMM:  13    -0.360384778579E+02   -0.23187E-06   -0.34277E-09  7226   0.320E-04    0.499E-05
RMM:  14    -0.360384780088E+02   -0.15092E-06   -0.26923E-09  6902   0.238E-04    0.247E-05
RMM:  15    -0.360384780963E+02   -0.87485E-07   -0.92295E-10  6069   0.150E-04    0.164E-05
RMM:  16    -0.360384781466E+02   -0.50383E-07   -0.51079E-10  5702   0.119E-04    0.165E-05
RMM:  17    -0.360384781631E+02   -0.16412E-07   -0.13068E-10  5098   0.941E-05    0.480E-06
RMM:  18    -0.360384781715E+02   -0.84874E-08   -0.29238E-11  3874   0.549E-05    0.221E-06
RMM:  19    -0.360384781771E+02   -0.55516E-08   -0.23049E-11  3852   0.545E-05    0.372E-06
RMM:  20    -0.360384781792E+02   -0.21014E-08   -0.58887E-12  3211   0.455E-05    0.178E-06
RMM:  21    -0.360384781799E+02   -0.72714E-09   -0.38486E-12  3099   0.438E-05
  18 F= -.36499496E+02 E0= -.36499496E+02  d E =-.341398E-03
       N       E                     dE             d eps       ncg     rms          rms(c)
DAV:   1    -0.360403129941E+02   -0.18348E-02   -0.40430E-01  9856   0.601E+00    0.247E-01
RMM:   2    -0.360400254459E+02    0.28755E-03   -0.61837E-03  9603   0.837E-01    0.144E-01
RMM:   3    -0.360398132305E+02    0.21222E-03   -0.21826E-03  9737   0.404E-01    0.277E-02
RMM:   4    -0.360398341302E+02   -0.20900E-04   -0.36045E-04 10044   0.208E-01    0.165E-02
RMM:   5    -0.360398411583E+02   -0.70281E-05   -0.78268E-05 10030   0.776E-02    0.912E-03
RMM:   6    -0.360398439395E+02   -0.27813E-05   -0.13750E-05 10102   0.401E-02    0.517E-03
RMM:   7    -0.360398469312E+02   -0.29917E-05   -0.39541E-06  9958   0.192E-02    0.180E-03
RMM:   8    -0.360398479328E+02   -0.10016E-05   -0.89325E-07 10136   0.803E-03    0.868E-04
RMM:   9    -0.360398527476E+02   -0.48148E-05   -0.75323E-07  9639   0.551E-03    0.841E-04
RMM:  10    -0.360398531106E+02   -0.36298E-06   -0.10222E-07 10175   0.321E-03    0.539E-04
RMM:  11    -0.360398549477E+02   -0.18371E-05   -0.11882E-07  9495   0.178E-03    0.190E-04
RMM:  12    -0.360398561214E+02   -0.11736E-05   -0.63186E-08  9008   0.122E-03    0.178E-04
RMM:  13    -0.360398567856E+02   -0.66429E-06   -0.12714E-08  7411   0.599E-04    0.957E-05
RMM:  14    -0.360398571678E+02   -0.38216E-06   -0.79147E-09  7288   0.408E-04    0.500E-05
RMM:  15    -0.360398574348E+02   -0.26700E-06   -0.33186E-09  7082   0.277E-04    0.377E-05
RMM:  16    -0.360398575637E+02   -0.12888E-06   -0.14571E-09  6339   0.177E-04    0.253E-05
RMM:  17    -0.360398576011E+02   -0.37393E-07   -0.41422E-10  5408   0.113E-04    0.125E-05
RMM:  18    -0.360398576290E+02   -0.27916E-07   -0.17256E-10  5509   0.988E-05    0.105E-05
RMM:  19    -0.360398576394E+02   -0.10400E-07   -0.47244E-11  4776   0.749E-05    0.487E-06
RMM:  20    -0.360398576466E+02   -0.71855E-08   -0.23483E-11  3703   0.493E-05    0.372E-06
RMM:  21    -0.360398576483E+02   -0.16726E-08   -0.22799E-12  3133   0.449E-05    0.117E-06
RMM:  22    -0.360398576500E+02   -0.17662E-08   -0.10129E-11  3331   0.488E-05    0.169E-06
RMM:  23    -0.360398576504E+02   -0.35516E-09   -0.35194E-13  2997   0.429E-05
  19 F= -.36499778E+02 E0= -.36499778E+02  d E =-.623270E-03
       N       E                     dE             d eps       ncg     rms          rms(c)
DAV:   1    -0.360398126934E+02    0.44957E-04   -0.22883E-03 11804   0.462E-01    0.222E-02
RMM:   2    -0.360398085412E+02    0.41522E-05   -0.39540E-05  9601   0.666E-02    0.124E-02
RMM:   3    -0.360398067287E+02    0.18125E-05   -0.14412E-05  9646   0.340E-02    0.260E-03
RMM:   4    -0.360398068972E+02   -0.16844E-06   -0.26401E-06 10174   0.176E-02    0.140E-03
RMM:   5    -0.360398069657E+02   -0.68537E-07   -0.42919E-07  9954   0.600E-03    0.685E-04
RMM:   6    -0.360398069873E+02   -0.21538E-07   -0.83807E-08 10072   0.318E-03    0.410E-04
RMM:   7    -0.360398069999E+02   -0.12649E-07   -0.21211E-08  9526   0.149E-03    0.921E-05
RMM:   8    -0.360398070017E+02   -0.18367E-08   -0.47308E-09  7965   0.590E-04    0.522E-05
RMM:   9    -0.360398070052E+02   -0.34365E-08   -0.10886E-09  6571   0.321E-04    0.176E-05
RMM:  10    -0.360398070059E+02   -0.75943E-09   -0.26133E-10  6250   0.167E-04
  20 F= -.36499849E+02 E0= -.36499849E+02  d E =-.709756E-04
       N       E                     dE             d eps       ncg     rms          rms(c)
DAV:   1    -0.360395558763E+02    0.25113E-03   -0.20624E-02  9764   0.139E+00    0.666E-02
RMM:   2    -0.360395175694E+02    0.38307E-04   -0.35572E-04  9601   0.200E-01    0.372E-02
RMM:   3    -0.360394998942E+02    0.17675E-04   -0.12982E-04  9642   0.102E-01    0.784E-03
RMM:   4    -0.360395012171E+02   -0.13229E-05   -0.23785E-05 10174   0.529E-02    0.418E-03
RMM:   5    -0.360395016493E+02   -0.43218E-06   -0.38669E-06  9954   0.180E-02    0.206E-03
RMM:   6    -0.360395017784E+02   -0.12919E-06   -0.76545E-07 10179   0.957E-03    0.123E-03
RMM:   7    -0.360395018449E+02   -0.66500E-07   -0.19014E-07  9975   0.447E-03    0.277E-04
RMM:   8    -0.360395018591E+02   -0.14152E-07   -0.44300E-08  9870   0.177E-03    0.160E-04
RMM:   9    -0.360395018859E+02   -0.26765E-07   -0.94023E-09  8458   0.905E-04    0.539E-05
RMM:  10    -0.360395018908E+02   -0.49511E-08   -0.23732E-09  7165   0.411E-04    0.417E-05
RMM:  11    -0.360395019042E+02   -0.13394E-07   -0.10295E-09  6645   0.248E-04    0.163E-05
RMM:  12    -0.360395019121E+02   -0.79399E-08   -0.53241E-10  6360   0.165E-04    0.134E-05
RMM:  13    -0.360395019170E+02   -0.48651E-08   -0.17324E-10  5230   0.993E-05    0.840E-06
RMM:  14    -0.360395019215E+02   -0.44847E-08   -0.18430E-10  4780   0.863E-05    0.296E-06
RMM:  15    -0.360395019231E+02   -0.15702E-08   -0.37811E-11  4181   0.659E-05    0.248E-06
RMM:  16    -0.360395019248E+02   -0.17385E-08   -0.55535E-11  4073   0.594E-05    0.221E-06
RMM:  17    -0.360395019252E+02   -0.34902E-09   -0.40246E-12  3275   0.496E-05
  21 F= -.36499909E+02 E0= -.36499909E+02  d E =-.131109E-03
       N       E                     dE             d eps       ncg     rms          rms(c)
DAV:   1    -0.360395396076E+02   -0.37683E-04   -0.24008E-03 11064   0.451E-01    0.236E-02
RMM:   2    -0.360395234265E+02    0.16181E-04   -0.38739E-05  9600   0.619E-02    0.128E-02
RMM:   3    -0.360395155600E+02    0.78665E-05   -0.26597E-05  9600   0.398E-02    0.343E-03
RMM:   4    -0.360395155018E+02    0.58176E-07   -0.34339E-06  9948   0.221E-02    0.156E-03
RMM:   5    -0.360395156053E+02   -0.10349E-06   -0.81887E-07  9809   0.776E-03    0.785E-04
RMM:   6    -0.360395159526E+02   -0.34730E-06   -0.16723E-07 10126   0.403E-03    0.460E-04
RMM:   7    -0.360395163669E+02   -0.41424E-06   -0.60073E-08  9815   0.203E-03    0.170E-04
RMM:   8    -0.360395165758E+02   -0.20889E-06   -0.15908E-08  9234   0.946E-04    0.133E-04
RMM:   9    -0.360395171396E+02   -0.56384E-06   -0.48987E-08  8220   0.922E-04    0.825E-05
RMM:  10    -0.360395171724E+02   -0.32815E-07   -0.50524E-09  7290   0.428E-04    0.608E-05
RMM:  11    -0.360395173720E+02   -0.19962E-06   -0.13828E-08  7339   0.457E-04    0.267E-05
RMM:  12    -0.360395174183E+02   -0.46290E-07   -0.40461E-09  7104   0.250E-04    0.134E-05
RMM:  13    -0.360395174488E+02   -0.30478E-07   -0.14110E-09  6017   0.161E-04    0.971E-06
RMM:  14    -0.360395174569E+02   -0.80647E-08   -0.52301E-10  5047   0.113E-04    0.729E-06
RMM:  15    -0.360395174601E+02   -0.32690E-08   -0.17487E-10  4691   0.827E-05    0.420E-06
RMM:  16    -0.360395174611E+02   -0.98862E-09   -0.38550E-11  4045   0.578E-05
  22 F= -.36500004E+02 E0= -.36500004E+02  d E =-.955478E-04
       N       E                     dE             d eps       ncg     rms          rms(c)
DAV:   1    -0.360395913544E+02   -0.73894E-04   -0.15076E-02 10356   0.113E+00    0.591E-02
RMM:   2    -0.360394908900E+02    0.10046E-03   -0.24323E-04  9600   0.155E-01    0.321E-02
RMM:   3    -0.360394441442E+02    0.46746E-04   -0.16718E-04  9600   0.997E-02    0.860E-03
RMM:   4    -0.360394444114E+02   -0.26722E-06   -0.21717E-05  9946   0.555E-02    0.390E-03
RMM:   5    -0.360394452885E+02   -0.87707E-06   -0.51846E-06  9805   0.195E-02    0.197E-03
RMM:   6    -0.360394468851E+02   -0.15966E-05   -0.10470E-06 10124   0.101E-02    0.114E-03
RMM:   7    -0.360394486882E+02   -0.18031E-05   -0.38314E-07  9848   0.511E-03    0.428E-04
RMM:   8    -0.360394495044E+02   -0.81626E-06   -0.97345E-08  9899   0.235E-03    0.335E-04
RMM:   9    -0.360394517168E+02   -0.22123E-05   -0.26849E-07  9618   0.227E-03    0.207E-04
RMM:  10    -0.360394518238E+02   -0.10700E-06   -0.32418E-08  8764   0.104E-03    0.151E-04
RMM:  11    -0.360394524969E+02   -0.67316E-06   -0.72298E-08  7765   0.104E-03    0.699E-05
RMM:  12    -0.360394526570E+02   -0.16010E-06   -0.18174E-08  7342   0.554E-04    0.335E-05
RMM:  13    -0.360394527496E+02   -0.92597E-07   -0.59214E-09  7248   0.326E-04    0.252E-05
RMM:  14    -0.360394527738E+02   -0.24203E-07   -0.17648E-09  6615   0.210E-04    0.184E-05
RMM:  15    -0.360394527840E+02   -0.10164E-07   -0.72590E-10  5750   0.150E-04    0.114E-05
RMM:  16    -0.360394527875E+02   -0.35743E-08   -0.13295E-10  4932   0.864E-05    0.486E-06
RMM:  17    -0.360394527902E+02   -0.26319E-08   -0.26248E-11  3988   0.616E-05    0.241E-06
RMM:  18    -0.360394527921E+02   -0.19004E-08   -0.21944E-11  3808   0.528E-05    0.156E-06
RMM:  19    -0.360394527930E+02   -0.88630E-09   -0.54357E-12  3121   0.452E-05
  23 F= -.36500141E+02 E0= -.36500141E+02  d E =-.232632E-03
       N       E                     dE             d eps       ncg     rms          rms(c)
DAV:   1    -0.360394501713E+02    0.26208E-05   -0.74317E-04 11612   0.246E-01    0.149E-02
RMM:   2    -0.360394427440E+02    0.74273E-05   -0.13704E-05  9600   0.354E-02    0.787E-03
RMM:   3    -0.360394392829E+02    0.34611E-05   -0.10747E-05  9600   0.248E-02    0.225E-03
RMM:   4    -0.360394391922E+02    0.90734E-07   -0.12239E-06  9864   0.144E-02    0.890E-04
RMM:   5    -0.360394392130E+02   -0.20867E-07   -0.35391E-07  9795   0.492E-03    0.460E-04
RMM:   6    -0.360394394061E+02   -0.19302E-06   -0.67450E-08 10076   0.244E-03    0.246E-04
RMM:   7    -0.360394396016E+02   -0.19550E-06   -0.23862E-08  9594   0.121E-03    0.108E-04
RMM:   8    -0.360394397304E+02   -0.12880E-06   -0.71913E-09  8217   0.649E-04    0.895E-05
RMM:   9    -0.360394400362E+02   -0.30580E-06   -0.21962E-08  7357   0.644E-04    0.534E-05
RMM:  10    -0.360394400753E+02   -0.39133E-07   -0.28575E-09  7217   0.358E-04    0.340E-05
RMM:  11    -0.360394401856E+02   -0.11028E-06   -0.68823E-09  7299   0.309E-04    0.160E-05
RMM:  12    -0.360394402091E+02   -0.23476E-07   -0.16407E-09  6118   0.172E-04    0.962E-06
RMM:  13    -0.360394402246E+02   -0.15514E-07   -0.65008E-10  5067   0.118E-04    0.571E-06
RMM:  14    -0.360394402313E+02   -0.67673E-08   -0.31188E-10  4509   0.922E-05    0.468E-06
RMM:  15    -0.360394402330E+02   -0.16403E-08   -0.80914E-11  4293   0.667E-05    0.234E-06
RMM:  16    -0.360394402337E+02   -0.68576E-09   -0.20202E-11  3614   0.539E-05
  24 F= -.36500195E+02 E0= -.36500195E+02  d E =-.532516E-04
       N       E                     dE             d eps       ncg     rms          rms(c)
DAV:   1    -0.360394868244E+02   -0.46591E-04   -0.66975E-03 10624   0.738E-01    0.446E-02
RMM:   2    -0.360394210560E+02    0.65768E-04   -0.12354E-04  9600   0.106E-01    0.236E-02
RMM:   3    -0.360393921035E+02    0.28952E-04   -0.96859E-05  9600   0.743E-02    0.676E-03
RMM:   4    -0.360393918639E+02    0.23967E-06   -0.11131E-05  9867   0.433E-02    0.266E-03
RMM:   5    -0.360393922245E+02   -0.36062E-06   -0.32304E-06  9799   0.148E-02    0.139E-03
RMM:   6    -0.360393934769E+02   -0.12524E-05   -0.60888E-07 10097   0.734E-03    0.729E-04
RMM:   7    -0.360393946665E+02   -0.11896E-05   -0.22225E-07  9806   0.366E-03    0.327E-04
RMM:   8    -0.360393953720E+02   -0.70550E-06   -0.62543E-08  9903   0.192E-03    0.270E-04
RMM:   9    -0.360393969523E+02   -0.15803E-05   -0.17519E-07  9523   0.190E-03    0.158E-04
RMM:  10    -0.360393970927E+02   -0.14042E-06   -0.23578E-08  7989   0.970E-04    0.105E-04
RMM:  11    -0.360393976046E+02   -0.51192E-06   -0.52785E-08  7553   0.843E-04    0.465E-05
RMM:  12    -0.360393977031E+02   -0.98497E-07   -0.96969E-09  7288   0.422E-04    0.299E-05
RMM:  13    -0.360393977706E+02   -0.67494E-07   -0.40834E-09  7227   0.261E-04    0.180E-05
RMM:  14    -0.360393977875E+02   -0.16925E-07   -0.11227E-09  5503   0.149E-04    0.113E-05
RMM:  15    -0.360393977952E+02   -0.76830E-08   -0.53775E-10  5307   0.111E-04    0.635E-06
RMM:  16    -0.360393977982E+02   -0.29409E-08   -0.65739E-11  4309   0.684E-05    0.316E-06
RMM:  17    -0.360393977997E+02   -0.15564E-08   -0.79157E-12  3438   0.488E-05    0.148E-06
RMM:  18    -0.360393978010E+02   -0.12526E-08   -0.12004E-11  3390   0.497E-05    0.129E-06
RMM:  19    -0.360393978017E+02   -0.75784E-09   -0.30195E-12  3014   0.450E-05
  25 F= -.36500349E+02 E0= -.36500349E+02  d E =-.207975E-03
       N       E                     dE             d eps       ncg     rms          rms(c)
DAV:   1    -0.360396484754E+02   -0.25067E-03   -0.26869E-02 10376   0.148E+00    0.895E-02
RMM:   2    -0.360393858288E+02    0.26265E-03   -0.49602E-04  9600   0.213E-01    0.473E-02
RMM:   3    -0.360392744081E+02    0.11142E-03   -0.38884E-04  9600   0.149E-01    0.135E-02
RMM:   4    -0.360392739576E+02    0.45050E-06   -0.44898E-05  9868   0.868E-02    0.531E-03
RMM:   5    -0.360392754841E+02   -0.15265E-05   -0.13045E-05  9795   0.297E-02    0.278E-03
RMM:   6    -0.360392794930E+02   -0.40090E-05   -0.24368E-06 10096   0.147E-02    0.145E-03
RMM:   7    -0.360392830554E+02   -0.35624E-05   -0.88881E-07  9815   0.731E-03    0.657E-04
RMM:   8    -0.360392849786E+02   -0.19232E-05   -0.24340E-07  9913   0.377E-03    0.541E-04
RMM:   9    -0.360392891572E+02   -0.41786E-05   -0.60787E-07  9610   0.368E-03    0.310E-04
RMM:  10    -0.360392894822E+02   -0.32502E-06   -0.86096E-08  9822   0.184E-03    0.211E-04
RMM:  11    -0.360392907556E+02   -0.12734E-05   -0.17948E-07  9656   0.160E-03    0.916E-05
RMM:  12    -0.360392909946E+02   -0.23905E-06   -0.29730E-08  7617   0.785E-04    0.590E-05
RMM:  13    -0.360392911465E+02   -0.15186E-06   -0.10894E-08  7294   0.453E-04    0.423E-05
RMM:  14    -0.360392911948E+02   -0.48331E-07   -0.31867E-09  7190   0.281E-04    0.211E-05
RMM:  15    -0.360392912135E+02   -0.18659E-07   -0.12676E-09  6317   0.158E-04    0.117E-05
RMM:  16    -0.360392912209E+02   -0.74338E-08   -0.16568E-10  5020   0.879E-05    0.731E-06
RMM:  17    -0.360392912281E+02   -0.71689E-08   -0.77821E-11  4779   0.710E-05    0.357E-06
RMM:  18    -0.360392912305E+02   -0.23656E-08   -0.10064E-11  3522   0.498E-05    0.286E-06
RMM:  19    -0.360392912326E+02   -0.21473E-08   -0.97988E-12  3310   0.479E-05    0.130E-06
RMM:  20    -0.360392912335E+02   -0.90790E-09   -0.31318E-12  3043   0.451E-05
  26 F= -.36500638E+02 E0= -.36500638E+02  d E =-.496787E-03
       N       E                     dE             d eps       ncg     rms          rms(c)
DAV:   1    -0.360404348923E+02   -0.11437E-02   -0.10811E-01 10504   0.297E+00    0.180E-01
RMM:   2    -0.360393799391E+02    0.10550E-02   -0.19999E-03  9600   0.427E-01    0.951E-02
RMM:   3    -0.360389457174E+02    0.43422E-03   -0.15665E-03  9600   0.299E-01    0.272E-02
RMM:   4    -0.360389453016E+02    0.41580E-06   -0.18129E-04  9864   0.174E-01    0.106E-02
RMM:   5    -0.360389508591E+02   -0.55575E-05   -0.52760E-05  9811   0.597E-02    0.562E-03
RMM:   6    -0.360389625272E+02   -0.11668E-04   -0.96568E-06 10088   0.295E-02    0.288E-03
RMM:   7    -0.360389724607E+02   -0.99335E-05   -0.34222E-06  9827   0.145E-02    0.133E-03
RMM:   8    -0.360389774112E+02   -0.49504E-05   -0.93281E-07  9911   0.745E-03    0.109E-03
RMM:   9    -0.360389883906E+02   -0.10979E-04   -0.21506E-06  9606   0.719E-03    0.616E-04
RMM:  10    -0.360389890561E+02   -0.66550E-06   -0.30871E-07  9869   0.350E-03    0.425E-04
RMM:  11    -0.360389920950E+02   -0.30390E-05   -0.59154E-07  9770   0.303E-03    0.183E-04
RMM:  12    -0.360389926405E+02   -0.54544E-06   -0.93180E-08  9285   0.148E-03    0.118E-04
RMM:  13    -0.360389930065E+02   -0.36604E-06   -0.31450E-08  7652   0.804E-04    0.853E-05
RMM:  14    -0.360389931151E+02   -0.10864E-06   -0.78906E-09  7293   0.487E-04    0.456E-05
RMM:  15    -0.360389931644E+02   -0.49220E-07   -0.28238E-09  7209   0.260E-04    0.232E-05
RMM:  16    -0.360389931874E+02   -0.23033E-07   -0.47223E-10  5871   0.140E-04    0.158E-05
RMM:  17    -0.360389932117E+02   -0.24301E-07   -0.30337E-10  5905   0.130E-04    0.109E-05
RMM:  18    -0.360389932175E+02   -0.58312E-08   -0.65419E-11  5173   0.880E-05    0.754E-06
RMM:  19    -0.360389932242E+02   -0.66993E-08   -0.31163E-11  3777   0.501E-05    0.268E-06
RMM:  20    -0.360389932262E+02   -0.19681E-08   -0.51739E-12  3165   0.450E-05    0.139E-06
RMM:  21    -0.360389932287E+02   -0.24925E-08   -0.83038E-12  3272   0.482E-05    0.997E-07
RMM:  22    -0.360389932290E+02   -0.27876E-09   -0.17937E-13  2949   0.446E-05
  27 F= -.36501139E+02 E0= -.36501139E+02  d E =-.997536E-03
       N       E                     dE             d eps       ncg     rms          rms(c)
DAV:   1    -0.360439264590E+02   -0.49332E-02   -0.43756E-01 10504   0.597E+00    0.363E-01
RMM:   2    -0.360396385402E+02    0.42879E-02   -0.81352E-03  9600   0.859E-01    0.192E-01
RMM:   3    -0.360379283498E+02    0.17102E-02   -0.63582E-03  9600   0.602E-01    0.548E-02
RMM:   4    -0.360379253582E+02    0.29916E-05   -0.73687E-04  9860   0.351E-01    0.211E-02
RMM:   5    -0.360379415183E+02   -0.16160E-04   -0.21147E-04  9830   0.120E-01    0.114E-02
RMM:   6    -0.360379748415E+02   -0.33323E-04   -0.38421E-05 10086   0.595E-02    0.572E-03
RMM:   7    -0.360380008006E+02   -0.25959E-04   -0.12978E-05  9820   0.287E-02    0.267E-03
RMM:   8    -0.360380130054E+02   -0.12205E-04   -0.36661E-06  9884   0.151E-02    0.220E-03
RMM:   9    -0.360380400267E+02   -0.27021E-04   -0.73165E-06  9604   0.141E-02    0.123E-03
RMM:  10    -0.360380415987E+02   -0.15720E-05   -0.11110E-06  9869   0.692E-03    0.848E-04
RMM:  11    -0.360380483860E+02   -0.67873E-05   -0.18795E-06  9731   0.565E-03    0.352E-04
RMM:  12    -0.360380494781E+02   -0.10921E-05   -0.28901E-07 10033   0.279E-03    0.239E-04
RMM:  13    -0.360380503521E+02   -0.87405E-06   -0.95804E-08  9622   0.147E-03    0.174E-04
RMM:  14    -0.360380506079E+02   -0.25575E-06   -0.19670E-08  7691   0.879E-04    0.949E-05
RMM:  15    -0.360380507594E+02   -0.15157E-06   -0.70667E-09  7294   0.432E-04    0.416E-05
RMM:  16    -0.360380508195E+02   -0.60026E-07   -0.12974E-09  6880   0.238E-04    0.310E-05
RMM:  17    -0.360380509023E+02   -0.82818E-07   -0.11172E-09  6579   0.224E-04    0.187E-05
RMM:  18    -0.360380509242E+02   -0.21870E-07   -0.28071E-10  5716   0.149E-04    0.121E-05
RMM:  19    -0.360380509446E+02   -0.20485E-07   -0.13435E-10  4551   0.772E-05    0.643E-06
RMM:  20    -0.360380509515E+02   -0.68287E-08   -0.30284E-11  4242   0.647E-05    0.252E-06
RMM:  21    -0.360380509565E+02   -0.50450E-08   -0.34744E-12  3314   0.490E-05    0.197E-06
RMM:  22    -0.360380509585E+02   -0.19754E-08   -0.10612E-11  3356   0.510E-05    0.155E-06
RMM:  23    -0.360380509593E+02   -0.84401E-09   -0.18558E-13  2976   0.445E-05
  28 F= -.36501814E+02 E0= -.36501814E+02  d E =-.167226E-02
       N       E                     dE             d eps       ncg     rms          rms(c)
DAV:   1    -0.360379737329E+02    0.77226E-04   -0.41121E-03 11948   0.581E-01    0.366E-02
RMM:   2    -0.360379308428E+02    0.42890E-04   -0.82636E-05  9600   0.861E-02    0.186E-02
RMM:   3    -0.360379146377E+02    0.16205E-04   -0.61960E-05  9600   0.599E-02    0.566E-03
RMM:   4    -0.360379141489E+02    0.48884E-06   -0.70946E-06  9858   0.369E-02    0.226E-03
RMM:   5    -0.360379142168E+02   -0.67926E-07   -0.22160E-06  9723   0.121E-02    0.108E-03
RMM:   6    -0.360379149382E+02   -0.72138E-06   -0.47021E-07 10123   0.624E-03    0.723E-04
RMM:   7    -0.360379158924E+02   -0.95424E-06   -0.15846E-07  9759   0.327E-03    0.268E-04
RMM:   8    -0.360379162281E+02   -0.33565E-06   -0.39096E-08  9782   0.159E-03    0.218E-04
RMM:   9    -0.360379173966E+02   -0.11686E-05   -0.11677E-07  9435   0.155E-03    0.111E-04
RMM:  10    -0.360379175345E+02   -0.13789E-06   -0.19750E-08  7628   0.745E-04    0.836E-05
RMM:  11    -0.360379178396E+02   -0.30505E-06   -0.22046E-08  7340   0.587E-04    0.434E-05
RMM:  12    -0.360379179417E+02   -0.10207E-06   -0.10625E-08  7293   0.385E-04    0.213E-05
RMM:  13    -0.360379179985E+02   -0.56831E-07   -0.29892E-09  6865   0.246E-04    0.139E-05
RMM:  14    -0.360379180133E+02   -0.14842E-07   -0.90612E-10  5780   0.160E-04    0.131E-05
RMM:  15    -0.360379180204E+02   -0.70963E-08   -0.40870E-10  5268   0.117E-04    0.578E-06
RMM:  16    -0.360379180230E+02   -0.25516E-08   -0.10085E-10  4316   0.722E-05    0.326E-06
RMM:  17    -0.360379180243E+02   -0.13697E-08   -0.13999E-11  3674   0.524E-05    0.198E-06
RMM:  18    -0.360379180257E+02   -0.13708E-08   -0.26633E-12  3205   0.471E-05    0.104E-06
RMM:  19    -0.360379180261E+02   -0.38835E-09   -0.49253E-12  3057   0.457E-05
  29 F= -.36501932E+02 E0= -.36501932E+02  d E =-.118579E-03
       N       E                     dE             d eps       ncg     rms          rms(c)
DAV:   1    -0.360380067390E+02   -0.88713E-04   -0.37131E-02 10732   0.175E+00    0.110E-01
RMM:   2    -0.360376220854E+02    0.38465E-03   -0.74754E-04  9600   0.259E-01    0.559E-02
RMM:   3    -0.360374838514E+02    0.13823E-03   -0.55951E-04  9600   0.180E-01    0.170E-02
RMM:   4    -0.360374812012E+02    0.26502E-05   -0.64463E-05  9854   0.111E-01    0.675E-03
RMM:   5    -0.360374823446E+02   -0.11434E-05   -0.20297E-05  9751   0.366E-02    0.325E-03
RMM:   6    -0.360374868777E+02   -0.45330E-05   -0.41388E-06 10113   0.186E-02    0.216E-03
RMM:   7    -0.360374920666E+02   -0.51889E-05   -0.14027E-06  9735   0.977E-03    0.807E-04
RMM:   8    -0.360374936402E+02   -0.15736E-05   -0.34276E-07 10057   0.471E-03    0.653E-04
RMM:   9    -0.360374994190E+02   -0.57788E-05   -0.89090E-07  9623   0.450E-03    0.328E-04
RMM:  10    -0.360374999735E+02   -0.55452E-06   -0.16365E-07  9749   0.209E-03    0.252E-04
RMM:  11    -0.360375011878E+02   -0.12143E-05   -0.13961E-07  9627   0.159E-03    0.121E-04
RMM:  12    -0.360375016438E+02   -0.45601E-06   -0.72748E-08  7880   0.101E-03    0.612E-05
RMM:  13    -0.360375018713E+02   -0.22755E-06   -0.18691E-08  7334   0.548E-04    0.381E-05
RMM:  14    -0.360375019178E+02   -0.46430E-07   -0.31454E-09  7115   0.316E-04    0.330E-05
RMM:  15    -0.360375019473E+02   -0.29552E-07   -0.19001E-09  6755   0.222E-04    0.169E-05
RMM:  16    -0.360375019598E+02   -0.12508E-07   -0.34679E-10  5630   0.129E-04    0.803E-06
RMM:  17    -0.360375019686E+02   -0.88114E-08   -0.77643E-11  4609   0.783E-05    0.519E-06
RMM:  18    -0.360375019744E+02   -0.57685E-08   -0.53617E-11  4512   0.638E-05    0.304E-06
RMM:  19    -0.360375019763E+02   -0.19434E-08   -0.60849E-12  3455   0.481E-05    0.228E-06
RMM:  20    -0.360375019783E+02   -0.19816E-08   -0.70608E-12  3168   0.450E-05    0.108E-06
RMM:  21    -0.360375019790E+02   -0.65575E-09   -0.25424E-13  2965   0.428E-05
  30 F= -.36502272E+02 E0= -.36502272E+02  d E =-.458368E-03
       N       E                     dE             d eps       ncg     rms          rms(c)
DAV:   1    -0.360386347189E+02   -0.11327E-02   -0.14959E-01 10792   0.350E+00    0.222E-01
RMM:   2    -0.360370846350E+02    0.15501E-02   -0.30218E-03  9600   0.520E-01    0.112E-01
RMM:   3    -0.360365427115E+02    0.54192E-03   -0.22595E-03  9600   0.362E-01    0.341E-02
RMM:   4    -0.360365336181E+02    0.90934E-05   -0.26030E-04  9852   0.223E-01    0.135E-02
RMM:   5    -0.360365377139E+02   -0.40957E-05   -0.81675E-05  9753   0.735E-02    0.654E-03
RMM:   6    -0.360365510592E+02   -0.13345E-04   -0.16450E-05 10111   0.373E-02    0.432E-03
RMM:   7    -0.360365655705E+02   -0.14511E-04   -0.54091E-06  9739   0.195E-02    0.163E-03
RMM:   8    -0.360365694055E+02   -0.38350E-05   -0.13463E-06 10063   0.934E-03    0.131E-03
RMM:   9    -0.360365842836E+02   -0.14878E-04   -0.30856E-06  9611   0.882E-03    0.650E-04
RMM:  10    -0.360365856553E+02   -0.13717E-05   -0.61743E-07  9749   0.407E-03    0.507E-04
RMM:  11    -0.360365884863E+02   -0.28310E-05   -0.43855E-07  9817   0.298E-03    0.243E-04
RMM:  12    -0.360365894879E+02   -0.10015E-05   -0.21520E-07  9586   0.184E-03    0.124E-04
RMM:  13    -0.360365900479E+02   -0.56008E-06   -0.57316E-08  7762   0.975E-04    0.770E-05
RMM:  14    -0.360365901524E+02   -0.10447E-06   -0.77389E-09  7322   0.501E-04    0.661E-05
RMM:  15    -0.360365902315E+02   -0.79048E-07   -0.41234E-09  7222   0.353E-04    0.334E-05
RMM:  16    -0.360365902752E+02   -0.43701E-07   -0.94136E-10  6645   0.212E-04    0.147E-05
RMM:  17    -0.360365903016E+02   -0.26437E-07   -0.30305E-10  5326   0.123E-04    0.120E-05
RMM:  18    -0.360365903183E+02   -0.16747E-07   -0.15361E-10  5384   0.106E-04    0.737E-06
RMM:  19    -0.360365903259E+02   -0.75679E-08   -0.60581E-11  4712   0.794E-05    0.434E-06
RMM:  20    -0.360365903301E+02   -0.41823E-08   -0.11829E-11  3690   0.513E-05    0.220E-06
RMM:  21    -0.360365903325E+02   -0.23588E-08   -0.20410E-12  3210   0.470E-05    0.114E-06
RMM:  22    -0.360365903332E+02   -0.77625E-09   -0.93632E-13  3042   0.461E-05
  31 F= -.36502884E+02 E0= -.36502884E+02  d E =-.107023E-02
       N       E                     dE             d eps       ncg     rms          rms(c)
DAV:   1    -0.360428220056E+02   -0.62317E-02   -0.60702E-01 10792   0.706E+00    0.449E-01
RMM:   2    -0.360364901213E+02    0.63319E-02   -0.12358E-02  9600   0.105E+00    0.227E-01
RMM:   3    -0.360343423829E+02    0.21477E-02   -0.92211E-03  9600   0.730E-01    0.689E-02
RMM:   4    -0.360343018671E+02    0.40516E-04   -0.10582E-03  9856   0.449E-01    0.271E-02
RMM:   5    -0.360343106946E+02   -0.88275E-05   -0.32762E-04  9758   0.148E-01    0.133E-02
RMM:   6    -0.360343486213E+02   -0.37927E-04   -0.65321E-05 10083   0.753E-02    0.872E-03
RMM:   7    -0.360343861835E+02   -0.37562E-04   -0.20596E-05  9722   0.388E-02    0.331E-03
RMM:   8    -0.360343956657E+02   -0.94822E-05   -0.54592E-06 10084   0.191E-02    0.267E-03
RMM:   9    -0.360344314211E+02   -0.35755E-04   -0.10396E-05  9603   0.175E-02    0.133E-03
RMM:  10    -0.360344350726E+02   -0.36514E-05   -0.22964E-06  9725   0.828E-03    0.104E-03
RMM:  11    -0.360344411539E+02   -0.60814E-05   -0.13215E-06  9876   0.554E-03    0.474E-04
RMM:  12    -0.360344432238E+02   -0.20698E-05   -0.59516E-07  9824   0.335E-03    0.254E-04
RMM:  13    -0.360344445124E+02   -0.12886E-05   -0.17338E-07  9661   0.176E-03    0.160E-04
RMM:  14    -0.360344447675E+02   -0.25514E-06   -0.20003E-08  7615   0.845E-04    0.134E-04
RMM:  15    -0.360344449832E+02   -0.21568E-06   -0.86829E-09  7322   0.563E-04    0.625E-05
RMM:  16    -0.360344451322E+02   -0.14900E-06   -0.31858E-09  7218   0.357E-04    0.300E-05
RMM:  17    -0.360344452164E+02   -0.84240E-07   -0.13119E-09  6884   0.205E-04    0.297E-05
RMM:  18    -0.360344452732E+02   -0.56752E-07   -0.63035E-10  5930   0.200E-04    0.201E-05
RMM:  19    -0.360344452916E+02   -0.18444E-07   -0.16985E-10  5214   0.153E-04    0.109E-05
RMM:  20    -0.360344453025E+02   -0.10844E-07   -0.42297E-11  4322   0.691E-05    0.416E-06
RMM:  21    -0.360344453081E+02   -0.56268E-08   -0.30077E-11  4506   0.638E-05    0.446E-06
RMM:  22    -0.360344453101E+02   -0.19454E-08   -0.39842E-12  3605   0.532E-05    0.248E-06
RMM:  23    -0.360344453108E+02   -0.72350E-09   -0.79852E-13  3181   0.445E-05
  32 F= -.36503824E+02 E0= -.36503824E+02  d E =-.200997E-02
       N       E                     dE             d eps       ncg     rms          rms(c)
DAV:   1    -0.360638079629E+02   -0.29363E-01   -0.24997E+00 10712   0.144E+01    0.921E-01
RMM:   2    -0.360373403676E+02    0.26468E-01   -0.51832E-02  9600   0.213E+00    0.464E-01
RMM:   3    -0.360285988604E+02    0.87415E-02   -0.38363E-02  9600   0.149E+00    0.141E-01
RMM:   4    -0.360283885259E+02    0.21033E-03   -0.43931E-03  9840   0.914E-01    0.544E-02
RMM:   5    -0.360283977242E+02   -0.91983E-05   -0.13377E-03  9770   0.307E-01    0.274E-02
RMM:   6    -0.360284925361E+02   -0.94812E-04   -0.26938E-04 10060   0.155E-01    0.177E-02
RMM:   7    -0.360285791235E+02   -0.86587E-04   -0.78641E-05  9700   0.781E-02    0.691E-03
RMM:   8    -0.360285980966E+02   -0.18973E-04   -0.22653E-05 10092   0.401E-02    0.549E-03
RMM:   9    -0.360286777665E+02   -0.79670E-04   -0.34749E-05  9602   0.353E-02    0.285E-03
RMM:  10    -0.360286876537E+02   -0.98872E-05   -0.89971E-06  9701   0.176E-02    0.209E-03
RMM:  11    -0.360287004528E+02   -0.12799E-04   -0.42334E-06  9955   0.106E-02    0.885E-04
RMM:  12    -0.360287041584E+02   -0.37056E-05   -0.14757E-06 10098   0.604E-03    0.520E-04
RMM:  13    -0.360287070872E+02   -0.29287E-05   -0.49355E-07  9936   0.312E-03    0.332E-04
RMM:  14    -0.360287079181E+02   -0.83091E-06   -0.57293E-08  8962   0.153E-03    0.217E-04
RMM:  15    -0.360287084904E+02   -0.57231E-06   -0.21457E-08  7606   0.804E-04    0.115E-04
RMM:  16    -0.360287090613E+02   -0.57097E-06   -0.13919E-08  7342   0.579E-04    0.610E-05
RMM:  17    -0.360287092651E+02   -0.20379E-06   -0.31576E-09  7184   0.310E-04    0.409E-05
RMM:  18    -0.360287094401E+02   -0.17498E-06   -0.24196E-09  7154   0.267E-04    0.250E-05
RMM:  19    -0.360287094786E+02   -0.38458E-07   -0.42007E-10  5632   0.181E-04    0.144E-05
RMM:  20    -0.360287095087E+02   -0.30087E-07   -0.14433E-10  4782   0.987E-05    0.849E-06
RMM:  21    -0.360287095192E+02   -0.10542E-07   -0.83150E-11  5352   0.885E-05    0.522E-06
RMM:  22    -0.360287095249E+02   -0.56639E-08   -0.21132E-11  4157   0.603E-05    0.298E-06
RMM:  23    -0.360287095261E+02   -0.12560E-08   -0.21878E-12  3255   0.427E-05    0.160E-06
RMM:  24    -0.360287095272E+02   -0.10725E-08   -0.34034E-12  3207   0.443E-05    0.410E-07
RMM:  25    -0.360287095274E+02   -0.16939E-09   -0.37184E-13  3013   0.433E-05
  33 F= -.36504405E+02 E0= -.36504405E+02  d E =-.259130E-02
       N       E                     dE             d eps       ncg     rms          rms(c)
DAV:   1    -0.360381091201E+02   -0.93996E-02   -0.46109E-01 11192   0.611E+00    0.394E-01
RMM:   2    -0.360331238340E+02    0.49853E-02   -0.94202E-03  9600   0.916E-01    0.200E-01
RMM:   3    -0.360314346428E+02    0.16892E-02   -0.72278E-03  9600   0.646E-01    0.610E-02
RMM:   4    -0.360313646404E+02    0.70002E-04   -0.79571E-04  9824   0.400E-01    0.246E-02
RMM:   5    -0.360313453949E+02    0.19246E-04   -0.26170E-04  9674   0.131E-01    0.114E-02
RMM:   6    -0.360313555280E+02   -0.10133E-04   -0.54706E-05 10117   0.679E-02    0.789E-03
RMM:   7    -0.360313698622E+02   -0.14334E-04   -0.14349E-05  9728   0.342E-02    0.297E-03
RMM:   8    -0.360313766225E+02   -0.67603E-05   -0.41281E-06 10080   0.174E-02    0.247E-03
RMM:   9    -0.360314041271E+02   -0.27505E-04   -0.57211E-06  9621   0.133E-02    0.131E-03
RMM:  10    -0.360314077414E+02   -0.36143E-05   -0.88869E-07  9783   0.702E-03    0.955E-04
RMM:  11    -0.360314177425E+02   -0.10001E-04   -0.72374E-07  9781   0.447E-03    0.444E-04
RMM:  12    -0.360314207826E+02   -0.30401E-05   -0.21672E-07 10049   0.275E-03    0.249E-04
RMM:  13    -0.360314242037E+02   -0.34211E-05   -0.78538E-08  9136   0.169E-03    0.134E-04
RMM:  14    -0.360314252986E+02   -0.10949E-05   -0.18704E-08  7787   0.969E-04    0.117E-04
RMM:  15    -0.360314259901E+02   -0.69148E-06   -0.17036E-08  7350   0.678E-04    0.513E-05
RMM:  16    -0.360314264644E+02   -0.47436E-06   -0.41817E-09  7232   0.382E-04    0.305E-05
RMM:  17    -0.360314266389E+02   -0.17445E-06   -0.19179E-09  6720   0.214E-04    0.166E-05
RMM:  18    -0.360314267667E+02   -0.12787E-06   -0.11027E-09  6617   0.191E-04    0.150E-05
RMM:  19    -0.360314267965E+02   -0.29777E-07   -0.34598E-10  5309   0.141E-04    0.780E-06
RMM:  20    -0.360314268099E+02   -0.13433E-07   -0.52364E-11  4294   0.765E-05    0.347E-06
RMM:  21    -0.360314268171E+02   -0.71093E-08   -0.17705E-11  4054   0.617E-05    0.238E-06
RMM:  22    -0.360314268194E+02   -0.23772E-08   -0.30421E-12  3353   0.496E-05    0.147E-06
RMM:  23    -0.360314268202E+02   -0.80581E-09   -0.92921E-13  3105   0.468E-05
  34 F= -.36504387E+02 E0= -.36504387E+02  d E =-.257361E-02
       N       E                     dE             d eps       ncg     rms          rms(c)
DAV:   1    -0.360314315498E+02   -0.47304E-05   -0.48551E-02 11032   0.199E+00    0.136E-01
RMM:   2    -0.360308609349E+02    0.57061E-03   -0.10551E-03  9600   0.308E-01    0.686E-02
RMM:   3    -0.360306630573E+02    0.19788E-03   -0.80459E-04  9600   0.216E-01    0.205E-02
RMM:   4    -0.360306584271E+02    0.46302E-05   -0.87797E-05  9843   0.131E-01    0.850E-03
RMM:   5    -0.360306599264E+02   -0.14994E-05   -0.27663E-05  9691   0.431E-02    0.404E-03
RMM:   6    -0.360306654333E+02   -0.55069E-05   -0.57335E-06 10142   0.226E-02    0.272E-03
RMM:   7    -0.360306729422E+02   -0.75089E-05   -0.22248E-06  9755   0.119E-02    0.104E-03
RMM:   8    -0.360306746476E+02   -0.17053E-05   -0.44699E-07 10004   0.546E-03    0.746E-04
RMM:   9    -0.360306825925E+02   -0.79449E-05   -0.14215E-06  9618   0.534E-03    0.458E-04
RMM:  10    -0.360306829828E+02   -0.39038E-06   -0.21718E-07  9750   0.232E-03    0.331E-04
RMM:  11    -0.360306842022E+02   -0.12194E-05   -0.13886E-07  9777   0.169E-03    0.167E-04
RMM:  12    -0.360306849892E+02   -0.78699E-06   -0.12928E-07  8423   0.123E-03    0.814E-05
RMM:  13    -0.360306852273E+02   -0.23806E-06   -0.17474E-08  7362   0.602E-04    0.517E-05
RMM:  14    -0.360306853607E+02   -0.13340E-06   -0.81020E-09  7286   0.402E-04    0.410E-05
RMM:  15    -0.360306854124E+02   -0.51752E-07   -0.34399E-09  7092   0.231E-04    0.237E-05
RMM:  16    -0.360306854380E+02   -0.25572E-07   -0.69662E-10  5874   0.137E-04    0.131E-05
RMM:  17    -0.360306854490E+02   -0.11013E-07   -0.11921E-10  5230   0.867E-05    0.633E-06
RMM:  18    -0.360306854580E+02   -0.89897E-08   -0.85773E-11  4723   0.650E-05    0.506E-06
RMM:  19    -0.360306854615E+02   -0.35297E-08   -0.10635E-11  3419   0.473E-05    0.256E-06
RMM:  20    -0.360306854636E+02   -0.20659E-08   -0.63187E-12  3163   0.453E-05    0.155E-06
RMM:  21    -0.360306854645E+02   -0.85356E-09   -0.18804E-12  3008   0.436E-05
  35 F= -.36504641E+02 E0= -.36504641E+02  d E =-.253425E-03
       N       E                     dE             d eps       ncg     rms          rms(c)
DAV:   1    -0.360305830279E+02    0.10244E-03   -0.77597E-04 11756   0.251E-01    0.172E-02
RMM:   2    -0.360305737433E+02    0.92846E-05   -0.16837E-05  9600   0.390E-02    0.868E-03
RMM:   3    -0.360305701907E+02    0.35526E-05   -0.12874E-05  9600   0.273E-02    0.260E-03
RMM:   4    -0.360305700217E+02    0.16905E-06   -0.13865E-06  9839   0.166E-02    0.108E-03
RMM:   5    -0.360305700112E+02    0.10483E-07   -0.43705E-07  9683   0.544E-03    0.509E-04
RMM:   6    -0.360305701829E+02   -0.17167E-06   -0.92680E-08 10155   0.286E-03    0.346E-04
RMM:   7    -0.360305704581E+02   -0.27522E-06   -0.35465E-08  9740   0.150E-03    0.130E-04
RMM:   8    -0.360305705528E+02   -0.94692E-07   -0.73884E-09  8563   0.710E-04    0.937E-05
RMM:   9    -0.360305709473E+02   -0.39455E-06   -0.31095E-08  7376   0.709E-04    0.556E-05
RMM:  10    -0.360305709739E+02   -0.26608E-07   -0.34412E-09  7226   0.315E-04    0.405E-05
RMM:  11    -0.360305710724E+02   -0.98473E-07   -0.49638E-09  7194   0.279E-04    0.209E-05
RMM:  12    -0.360305711149E+02   -0.42488E-07   -0.30628E-09  6332   0.194E-04    0.100E-05
RMM:  13    -0.360305711331E+02   -0.18209E-07   -0.64803E-10  5265   0.118E-04    0.600E-06
RMM:  14    -0.360305711432E+02   -0.10097E-07   -0.40757E-10  4641   0.988E-05    0.473E-06
RMM:  15    -0.360305711461E+02   -0.28874E-08   -0.15227E-10  4288   0.710E-05    0.300E-06
RMM:  16    -0.360305711473E+02   -0.11571E-08   -0.29968E-11  3755   0.559E-05    0.154E-06
RMM:  17    -0.360305711476E+02   -0.36471E-09   -0.19736E-12  3079   0.474E-05
  36 F= -.36504653E+02 E0= -.36504653E+02  d E =-.265324E-03
       N       E                     dE             d eps       ncg     rms          rms(c)
DAV:   1    -0.360303763724E+02    0.19477E-03   -0.31071E-03 11100   0.503E-01    0.345E-02
RMM:   2    -0.360303394263E+02    0.36946E-04   -0.67427E-05  9600   0.780E-02    0.174E-02
RMM:   3    -0.360303257060E+02    0.13720E-04   -0.51534E-05  9600   0.546E-02    0.520E-03
RMM:   4    -0.360303252212E+02    0.48485E-06   -0.55738E-06  9839   0.332E-02    0.216E-03
RMM:   5    -0.360303252681E+02   -0.46890E-07   -0.17628E-06  9691   0.109E-02    0.102E-03
RMM:   6    -0.360303258512E+02   -0.58314E-06   -0.37120E-07 10152   0.573E-03    0.690E-04
RMM:   7    -0.360303267196E+02   -0.86834E-06   -0.14639E-07  9765   0.302E-03    0.262E-04
RMM:   8    -0.360303269727E+02   -0.25315E-06   -0.29058E-08  9693   0.142E-03    0.189E-04
RMM:   9    -0.360303280954E+02   -0.11226E-05   -0.11658E-07  9389   0.141E-03    0.115E-04
RMM:  10    -0.360303281624E+02   -0.67063E-07   -0.14616E-08  7475   0.618E-04    0.830E-05
RMM:  11    -0.360303283859E+02   -0.22345E-06   -0.14151E-08  7288   0.483E-04    0.421E-05
RMM:  12    -0.360303285144E+02   -0.12857E-06   -0.11867E-08  7276   0.363E-04    0.205E-05
RMM:  13    -0.360303285643E+02   -0.49875E-07   -0.23945E-09  6237   0.196E-04    0.125E-05
RMM:  14    -0.360303285832E+02   -0.18849E-07   -0.81147E-10  5692   0.138E-04    0.100E-05
RMM:  15    -0.360303285914E+02   -0.82146E-08   -0.46884E-10  4877   0.992E-05    0.637E-06
RMM:  16    -0.360303285942E+02   -0.27801E-08   -0.85240E-11  4300   0.672E-05    0.305E-06
RMM:  17    -0.360303285956E+02   -0.14379E-08   -0.11728E-11  3553   0.502E-05    0.159E-06
RMM:  18    -0.360303285966E+02   -0.95997E-09   -0.23890E-12  3144   0.469E-05
  37 F= -.36504660E+02 E0= -.36504660E+02  d E =-.272382E-03
       N       E                     dE             d eps       ncg     rms          rms(c)
DAV:   1    -0.360304734564E+02   -0.14486E-03   -0.87728E-04 10676   0.267E-01    0.183E-02
RMM:   2    -0.360304631339E+02    0.10322E-04   -0.19033E-05  9600   0.415E-02    0.923E-03
RMM:   3    -0.360304594028E+02    0.37311E-05   -0.14569E-05  9600   0.290E-02    0.277E-03
RMM:   4    -0.360304591384E+02    0.26443E-06   -0.15653E-06  9835   0.177E-02    0.115E-03
RMM:   5    -0.360304590079E+02    0.13041E-06   -0.49592E-07  9683   0.579E-03    0.542E-04
RMM:   6    -0.360304590699E+02   -0.61934E-07   -0.10284E-07 10149   0.303E-03    0.369E-04
RMM:   7    -0.360304591728E+02   -0.10289E-06   -0.34931E-08  9746   0.156E-03    0.139E-04
RMM:   8    -0.360304592443E+02   -0.71548E-07   -0.75633E-09  8689   0.739E-04    0.998E-05
RMM:   9    -0.360304595296E+02   -0.28532E-06   -0.22083E-08  7428   0.630E-04    0.600E-05
RMM:  10    -0.360304595554E+02   -0.25806E-07   -0.19213E-09  7143   0.296E-04    0.430E-05
RMM:  11    -0.360304596768E+02   -0.12139E-06   -0.31197E-09  7179   0.230E-04    0.230E-05
RMM:  12    -0.360304597182E+02   -0.41351E-07   -0.10171E-09  5926   0.152E-04    0.109E-05
RMM:  13    -0.360304597589E+02   -0.40741E-07   -0.47034E-10  5255   0.112E-04    0.636E-06
RMM:  14    -0.360304597775E+02   -0.18621E-07   -0.19032E-10  4485   0.870E-05    0.480E-06
RMM:  15    -0.360304597888E+02   -0.11252E-07   -0.94130E-11  4307   0.711E-05    0.298E-06
RMM:  16    -0.360304597945E+02   -0.57307E-08   -0.26167E-11  3854   0.580E-05    0.182E-06
RMM:  17    -0.360304597965E+02   -0.20141E-08   -0.37504E-12  3280   0.487E-05    0.685E-07
RMM:  18    -0.360304597979E+02   -0.13481E-08   -0.11381E-11  3369   0.482E-05    0.700E-07
RMM:  19    -0.360304597981E+02   -0.25284E-09   -0.19931E-13  2867   0.427E-05
  38 F= -.36504657E+02 E0= -.36504657E+02  d E =-.269989E-03
       N       E                     dE             d eps       ncg     rms          rms(c)
DAV:   1    -0.360304959045E+02   -0.36107E-04   -0.26437E-04 11140   0.154E-01    0.416E-03
RMM:   2    -0.360304956330E+02    0.27150E-06   -0.31427E-06  9600   0.182E-02    0.260E-03
RMM:   3    -0.360304952464E+02    0.38659E-06   -0.85205E-07  9633   0.870E-03    0.529E-04
RMM:   4    -0.360304952223E+02    0.24089E-07   -0.16924E-07 10014   0.389E-03    0.371E-04
RMM:   5    -0.360304952306E+02   -0.83119E-08   -0.25190E-08 10144   0.149E-03    0.138E-04
RMM:   6    -0.360304952505E+02   -0.19846E-07   -0.54487E-09  8092   0.644E-04    0.484E-05
RMM:   7    -0.360304952918E+02   -0.41382E-07   -0.23543E-09  7245   0.358E-04    0.240E-05
RMM:   8    -0.360304953284E+02   -0.36594E-07   -0.14688E-09  6892   0.241E-04    0.245E-05
RMM:   9    -0.360304953521E+02   -0.23710E-07   -0.71013E-10  6235   0.158E-04    0.847E-06
RMM:  10    -0.360304953732E+02   -0.21051E-07   -0.77051E-10  5714   0.130E-04    0.592E-06
RMM:  11    -0.360304953825E+02   -0.92862E-08   -0.26135E-10  4669   0.922E-05    0.425E-06
RMM:  12    -0.360304953876E+02   -0.50843E-08   -0.13451E-10  4368   0.770E-05    0.306E-06
RMM:  13    -0.360304953890E+02   -0.14397E-08   -0.35710E-11  3773   0.615E-05    0.120E-06
RMM:  14    -0.360304953898E+02   -0.82809E-09   -0.33363E-11  3842   0.543E-05
  39 F= -.36504674E+02 E0= -.36504674E+02  d E =-.163800E-04
       N       E                     dE             d eps       ncg     rms          rms(c)
DAV:   1    -0.360304970209E+02   -0.16319E-05   -0.70407E-07 11288   0.794E-03    0.215E-04
RMM:   2    -0.360304970169E+02    0.39490E-08   -0.84223E-09  8958   0.941E-04    0.134E-04
RMM:   3    -0.360304970123E+02    0.46068E-08   -0.22612E-09  6630   0.449E-04    0.280E-05
RMM:   4    -0.360304970121E+02    0.19782E-09   -0.35427E-10  6045   0.194E-04    0.175E-05
RMM:   5    -0.360304970121E+02    0.38881E-10   -0.94277E-11  5423   0.965E-05    0.355E-06
RMM:   6    -0.360304970122E+02   -0.67303E-10   -0.21858E-11  3661   0.589E-05
  40 F= -.36504674E+02 E0= -.36504674E+02  d E =-.169922E-04
       N       E                     dE             d eps       ncg     rms          rms(c)
DAV:   1    -0.360305002124E+02   -0.32003E-05   -0.28124E-06 11040   0.159E-02    0.429E-04
RMM:   2    -0.360305002034E+02    0.90074E-08   -0.33446E-08  9600   0.188E-03    0.268E-04
RMM:   3    -0.360305001924E+02    0.10980E-07   -0.90226E-09  9600   0.897E-04    0.538E-05
RMM:   4    -0.360305001918E+02    0.61573E-09   -0.17454E-09  6621   0.402E-04    0.378E-05
RMM:   5    -0.360305001920E+02   -0.21100E-09   -0.27485E-10  6171   0.170E-04    0.129E-05
RMM:   6    -0.360305001919E+02    0.58435E-10   -0.81978E-11  5115   0.926E-05
  41 F= -.36504676E+02 E0= -.36504676E+02  d E =-.182412E-04
       N       E                     dE             d eps       ncg     rms          rms(c)
DAV:   1    -0.360305063496E+02   -0.61576E-05   -0.11251E-05 10736   0.317E-02    0.858E-04
RMM:   2    -0.360305063270E+02    0.22560E-07   -0.13358E-07  9600   0.375E-03    0.535E-04
RMM:   3    -0.360305062980E+02    0.29035E-07   -0.36098E-08  9633   0.179E-03    0.108E-04
RMM:   4    -0.360305062963E+02    0.17217E-08   -0.71462E-09  8952   0.800E-04    0.754E-05
RMM:   5    -0.360305062965E+02   -0.25921E-09   -0.10494E-09  6432   0.327E-04    0.258E-05
RMM:   6    -0.360305062966E+02   -0.10573E-09   -0.26489E-10  6188   0.165E-04
  42 F= -.36504678E+02 E0= -.36504678E+02  d E =-.203659E-04
       N       E                     dE             d eps       ncg     rms          rms(c)
DAV:   1    -0.360305082106E+02   -0.19141E-05   -0.11570E-06 10504   0.102E-02    0.275E-04
RMM:   2    -0.360305082056E+02    0.50045E-08   -0.13636E-08  9494   0.119E-03    0.171E-04
RMM:   3    -0.360305081997E+02    0.58967E-08   -0.36159E-09  8065   0.569E-04    0.330E-05
RMM:   4    -0.360305081994E+02    0.31832E-09   -0.65168E-10  6153   0.255E-04    0.228E-05
RMM:   5    -0.360305081994E+02   -0.31378E-10   -0.14408E-10  5715   0.114E-04    0.689E-06
RMM:   6    -0.360305081994E+02    0.32287E-10   -0.37009E-11  3931   0.689E-05
  43 F= -.36504678E+02 E0= -.36504678E+02  d E =-.209775E-04
[...]
RMM:  10    -0.360307982159E+02   -0.41250E-07   -0.34197E-09  7206   0.416E-04    0.606E-05
RMM:  11    -0.360307983577E+02   -0.14184E-06   -0.74072E-09  7264   0.352E-04    0.215E-05
RMM:  12    -0.360307983975E+02   -0.39805E-07   -0.33684E-09  6930   0.226E-04    0.178E-05
RMM:  13    -0.360307984136E+02   -0.16061E-07   -0.59089E-10  5814   0.155E-04    0.107E-05
RMM:  14    -0.360307984246E+02   -0.11024E-07   -0.39829E-10  5083   0.121E-04    0.575E-06
RMM:  15    -0.360307984297E+02   -0.50429E-08   -0.14196E-10  4305   0.771E-05    0.380E-06
RMM:  16    -0.360307984332E+02   -0.34931E-08   -0.74279E-11  4179   0.655E-05    0.271E-06
RMM:  17    -0.360307984336E+02   -0.42087E-09   -0.13110E-11  3576   0.517E-05
  76 F= -.36505038E+02 E0= -.36505038E+02  d E =0.251769E-04
       N       E                     dE             d eps       ncg     rms          rms(c)
DAV:   1    -0.360308004393E+02   -0.20061E-05   -0.49474E-03 10156   0.646E-01    0.199E-02
RMM:   2    -0.360307960093E+02    0.44300E-05   -0.74693E-05  9601   0.886E-02    0.113E-02
RMM:   3    -0.360307928238E+02    0.31855E-05   -0.22242E-05  9641   0.443E-02    0.346E-03
RMM:   4    -0.360307930858E+02   -0.26203E-06   -0.36901E-06 10059   0.230E-02    0.219E-03
RMM:   5    -0.360307932628E+02   -0.17701E-06   -0.70211E-07  9931   0.763E-03    0.107E-03
RMM:   6    -0.360307934884E+02   -0.22559E-06   -0.15104E-07 10131   0.384E-03    0.537E-04
RMM:   7    -0.360307937349E+02   -0.24647E-06   -0.34460E-08  9742   0.185E-03    0.120E-04
RMM:   8    -0.360307938176E+02   -0.82743E-07   -0.95065E-09  8594   0.767E-04    0.783E-05
RMM:   9    -0.360307940877E+02   -0.27008E-06   -0.16130E-08  7580   0.640E-04    0.678E-05
RMM:  10    -0.360307941015E+02   -0.13762E-07   -0.17868E-09  7006   0.346E-04    0.424E-05
RMM:  11    -0.360307942172E+02   -0.11574E-06   -0.53981E-09  7232   0.304E-04    0.211E-05
RMM:  12    -0.360307942457E+02   -0.28544E-07   -0.23222E-09  6549   0.185E-04    0.141E-05
RMM:  13    -0.360307942588E+02   -0.13088E-07   -0.44132E-10  5586   0.127E-04    0.980E-06
RMM:  14    -0.360307942669E+02   -0.80388E-08   -0.27932E-10  4920   0.106E-04    0.511E-06
RMM:  15    -0.360307942715E+02   -0.46512E-08   -0.98645E-11  4362   0.739E-05    0.326E-06
RMM:  16    -0.360307942739E+02   -0.23927E-08   -0.50471E-11  4068   0.606E-05    0.255E-06
RMM:  17    -0.360307942744E+02   -0.51841E-09   -0.11253E-11  3425   0.480E-05
  77 F= -.36505041E+02 E0= -.36505041E+02  d E =-.253245E-05
       N       E                     dE             d eps       ncg     rms          rms(c)
DAV:   1    -0.360307890838E+02    0.51901E-05   -0.98351E-04 10756   0.288E-01    0.889E-03
RMM:   2    -0.360307881850E+02    0.89882E-06   -0.14842E-05  9601   0.395E-02    0.506E-03
RMM:   3    -0.360307875246E+02    0.66037E-06   -0.44249E-06  9641   0.198E-02    0.154E-03
RMM:   4    -0.360307875705E+02   -0.45882E-07   -0.73346E-07 10059   0.103E-02    0.979E-04
RMM:   5    -0.360307876088E+02   -0.38322E-07   -0.13959E-07  9931   0.341E-03    0.475E-04
RMM:   6    -0.360307876636E+02   -0.54777E-07   -0.29944E-08  9856   0.171E-03    0.239E-04
RMM:   7    -0.360307877273E+02   -0.63708E-07   -0.67139E-09  8314   0.827E-04    0.533E-05
RMM:   8    -0.360307877519E+02   -0.24605E-07   -0.18439E-09  7036   0.362E-04    0.347E-05
RMM:   9    -0.360307878297E+02   -0.77815E-07   -0.33960E-09  7170   0.308E-04    0.314E-05
RMM:  10    -0.360307878352E+02   -0.55602E-08   -0.37357E-10  6151   0.185E-04    0.185E-05
RMM:  11    -0.360307878669E+02   -0.31611E-07   -0.79526E-10  5518   0.140E-04    0.117E-05
RMM:  12    -0.360307878820E+02   -0.15108E-07   -0.72543E-10  5662   0.119E-04    0.674E-06
RMM:  13    -0.360307878841E+02   -0.21321E-08   -0.76783E-11  4329   0.805E-05    0.460E-06
RMM:  14    -0.360307878881E+02   -0.39863E-08   -0.74885E-11  4153   0.651E-05    0.240E-06
RMM:  15    -0.360307878904E+02   -0.23231E-08   -0.37187E-11  3688   0.539E-05    0.173E-06
RMM:  16    -0.360307878914E+02   -0.94496E-09   -0.22932E-11  3557   0.501E-05
  78 F= -.36505037E+02 E0= -.36505037E+02  d E =0.871414E-06
       N       E                     dE             d eps       ncg     rms          rms(c)
DAV:   1    -0.360308975910E+02   -0.10970E-03   -0.62817E-03 10052   0.729E-01    0.187E-02
RMM:   2    -0.360308951527E+02    0.24383E-05   -0.85180E-05  9601   0.947E-02    0.112E-02
RMM:   3    -0.360308915415E+02    0.36112E-05   -0.22911E-05  9690   0.450E-02    0.332E-03
RMM:   4    -0.360308918581E+02   -0.31660E-06   -0.42833E-06 10134   0.214E-02    0.217E-03
RMM:   5    -0.360308920970E+02   -0.23890E-06   -0.67029E-07  9925   0.775E-03    0.902E-04
RMM:   6    -0.360308923376E+02   -0.24063E-06   -0.14215E-07 10266   0.366E-03    0.428E-04
RMM:   7    -0.360308925839E+02   -0.24631E-06   -0.34087E-08  9635   0.162E-03    0.106E-04
RMM:   8    -0.360308927287E+02   -0.14475E-06   -0.11442E-08  8386   0.818E-04    0.769E-05
RMM:   9    -0.360308929523E+02   -0.22363E-06   -0.12914E-08  7415   0.572E-04    0.381E-05
RMM:  10    -0.360308929978E+02   -0.45532E-07   -0.21670E-09  7078   0.310E-04    0.348E-05
RMM:  11    -0.360308931227E+02   -0.12488E-06   -0.70781E-09  7239   0.321E-04    0.151E-05
RMM:  12    -0.360308931389E+02   -0.16178E-07   -0.14884E-09  6098   0.175E-04    0.132E-05
RMM:  13    -0.360308931564E+02   -0.17482E-07   -0.74575E-10  5320   0.130E-04    0.472E-06
RMM:  14    -0.360308931585E+02   -0.21028E-08   -0.14365E-10  4300   0.820E-05    0.360E-06
RMM:  15    -0.360308931641E+02   -0.56575E-08   -0.13243E-10  4235   0.704E-05    0.242E-06
RMM:  16    -0.360308931648E+02   -0.69872E-09   -0.24898E-11  3647   0.547E-05
  79 F= -.36505058E+02 E0= -.36505058E+02  d E =-.204271E-04
       N       E                     dE             d eps       ncg     rms          rms(c)
DAV:   1    -0.360309085568E+02   -0.15393E-04   -0.14780E-04 11132   0.112E-01    0.287E-03
RMM:   2    -0.360309084743E+02    0.82478E-07   -0.20028E-06  9601   0.145E-02    0.172E-03
RMM:   3    -0.360309083690E+02    0.10533E-06   -0.54006E-07  9690   0.691E-03    0.507E-04
RMM:   4    -0.360309083705E+02   -0.15514E-08   -0.10080E-07 10132   0.330E-03    0.333E-04
RMM:   5    -0.360309083751E+02   -0.45638E-08   -0.15779E-08  9672   0.119E-03    0.138E-04
RMM:   6    -0.360309083832E+02   -0.81209E-08   -0.32477E-09  7713   0.567E-04    0.643E-05
RMM:   7    -0.360309083930E+02   -0.97593E-08   -0.80945E-10  6402   0.289E-04    0.153E-05
RMM:   8    -0.360309084004E+02   -0.74519E-08   -0.26511E-10  6096   0.156E-04    0.108E-05
RMM:   9    -0.360309084130E+02   -0.12542E-07   -0.32612E-10  5510   0.117E-04    0.571E-06
RMM:  10    -0.360309084169E+02   -0.39540E-08   -0.79481E-11  4674   0.779E-05    0.472E-06
RMM:  11    -0.360309084249E+02   -0.79654E-08   -0.20471E-10  4449   0.778E-05    0.213E-06
RMM:  12    -0.360309084262E+02   -0.12872E-08   -0.34487E-11  3817   0.575E-05    0.153E-06
RMM:  13    -0.360309084275E+02   -0.12753E-08   -0.28226E-11  3678   0.537E-05    0.638E-07
RMM:  14    -0.360309084277E+02   -0.25693E-09   -0.47194E-12  3074   0.468E-05
  80 F= -.36505060E+02 E0= -.36505060E+02  d E =-.226371E-04
       N       E                     dE             d eps       ncg     rms          rms(c)
DAV:   1    -0.360309386994E+02   -0.30272E-04   -0.59116E-04 10412   0.224E-01    0.574E-03
RMM:   2    -0.360309384256E+02    0.27387E-06   -0.80106E-06  9601   0.291E-02    0.344E-03
RMM:   3    -0.360309380386E+02    0.38697E-06   -0.21586E-06  9690   0.138E-02    0.102E-03
RMM:   4    -0.360309380575E+02   -0.18907E-07   -0.40287E-07 10132   0.659E-03    0.665E-04
RMM:   5    -0.360309380792E+02   -0.21737E-07   -0.63349E-08  9927   0.238E-03    0.277E-04
RMM:   6    -0.360309381097E+02   -0.30479E-07   -0.13276E-08  9474   0.112E-03    0.131E-04
RMM:   7    -0.360309381433E+02   -0.33636E-07   -0.31503E-09  7482   0.507E-04    0.327E-05
RMM:   8    -0.360309381663E+02   -0.22919E-07   -0.10505E-09  6696   0.269E-04    0.230E-05
RMM:   9    -0.360309382016E+02   -0.35351E-07   -0.12369E-09  6737   0.198E-04    0.116E-05
RMM:  10    -0.360309382111E+02   -0.94697E-08   -0.24329E-10  5507   0.118E-04    0.105E-05
RMM:  11    -0.360309382343E+02   -0.23251E-07   -0.71012E-10  5381   0.120E-04    0.481E-06
RMM:  12    -0.360309382377E+02   -0.33560E-08   -0.15783E-10  4413   0.806E-05    0.350E-06
RMM:  13    -0.360309382412E+02   -0.35072E-08   -0.78203E-11  4158   0.680E-05    0.173E-06
RMM:  14    -0.360309382420E+02   -0.76034E-09   -0.17130E-11  3560   0.535E-05
  81 F= -.36505064E+02 E0= -.36505064E+02  d E =-.264222E-04
       N       E                     dE             d eps       ncg     rms          rms(c)
DAV:   1    -0.360309967469E+02   -0.58506E-04   -0.23646E-03 10172   0.447E-01    0.115E-02
RMM:   2    -0.360309957766E+02    0.97030E-06   -0.32052E-05  9601   0.581E-02    0.687E-03
RMM:   3    -0.360309943427E+02    0.14339E-05   -0.86296E-06  9690   0.276E-02    0.203E-03
RMM:   4    -0.360309944499E+02   -0.10712E-06   -0.16113E-06 10132   0.132E-02    0.133E-03
RMM:   5    -0.360309945408E+02   -0.90931E-07   -0.25371E-07  9929   0.477E-03    0.554E-04
RMM:   6    -0.360309946447E+02   -0.10387E-06   -0.53365E-08 10149   0.225E-03    0.264E-04
RMM:   7    -0.360309947526E+02   -0.10798E-06   -0.12787E-08  9025   0.995E-04    0.653E-05
RMM:   8    -0.360309948199E+02   -0.67270E-07   -0.42183E-09  7477   0.510E-04    0.474E-05
RMM:   9    -0.360309949281E+02   -0.10815E-06   -0.52903E-09  7208   0.370E-04    0.237E-05
RMM:  10    -0.360309949502E+02   -0.22132E-07   -0.81651E-10  6430   0.202E-04    0.216E-05
RMM:  11    -0.360309950117E+02   -0.61543E-07   -0.26381E-09  6947   0.212E-04    0.102E-05
RMM:  12    -0.360309950212E+02   -0.94710E-08   -0.66848E-10  5066   0.126E-04    0.865E-06
RMM:  13    -0.360309950305E+02   -0.92757E-08   -0.30251E-10  4716   0.996E-05    0.373E-06
RMM:  14    -0.360309950316E+02   -0.11371E-08   -0.58994E-11  4142   0.697E-05    0.227E-06
RMM:  15    -0.360309950347E+02   -0.30554E-08   -0.57897E-11  3898   0.580E-05    0.173E-06
RMM:  16    -0.360309950352E+02   -0.55206E-09   -0.16126E-11  3571   0.512E-05
  82 F= -.36505069E+02 E0= -.36505069E+02  d E =-.314774E-04
       N       E                     dE             d eps       ncg     rms          rms(c)
DAV:   1    -0.360310678260E+02   -0.72791E-04   -0.72863E-03 10036   0.785E-01    0.194E-02
RMM:   2    -0.360310664746E+02    0.13514E-05   -0.10157E-04  9601   0.104E-01    0.114E-02
RMM:   3    -0.360310634231E+02    0.30515E-05   -0.26007E-05  9707   0.482E-02    0.370E-03
RMM:   4    -0.360310637676E+02   -0.34459E-06   -0.48240E-06 10133   0.232E-02    0.240E-03
RMM:   5    -0.360310640022E+02   -0.23456E-06   -0.79231E-07  9865   0.841E-03    0.941E-04
RMM:   6    -0.360310642400E+02   -0.23781E-06   -0.17787E-07 10323   0.409E-03    0.453E-04
RMM:   7    -0.360310644772E+02   -0.23713E-06   -0.37495E-08  9819   0.176E-03    0.105E-04
RMM:   8    -0.360310645999E+02   -0.12270E-06   -0.11127E-08  8344   0.819E-04    0.727E-05
RMM:   9    -0.360310648168E+02   -0.21695E-06   -0.11757E-08  7427   0.554E-04    0.374E-05
RMM:  10    -0.360310648625E+02   -0.45663E-07   -0.21684E-09  7052   0.300E-04    0.311E-05
RMM:  11    -0.360310649943E+02   -0.13180E-06   -0.78000E-09  7250   0.331E-04    0.152E-05
RMM:  12    -0.360310650043E+02   -0.99863E-08   -0.11832E-09  5960   0.163E-04    0.120E-05
RMM:  13    -0.360310650221E+02   -0.17800E-07   -0.77440E-10  5343   0.130E-04    0.510E-06
RMM:  14    -0.360310650251E+02   -0.30377E-08   -0.17593E-10  4331   0.824E-05    0.371E-06
RMM:  15    -0.360310650296E+02   -0.44965E-08   -0.84174E-11  4135   0.654E-05    0.206E-06
RMM:  16    -0.360310650309E+02   -0.12901E-08   -0.34415E-11  3755   0.562E-05    0.194E-06
RMM:  17    -0.360310650313E+02   -0.38017E-09   -0.32632E-12  3134   0.489E-05
  83 F= -.36505077E+02 E0= -.36505077E+02  d E =-.819647E-05
       N       E                     dE             d eps       ncg     rms          rms(c)
DAV:   1    -0.360311477793E+02   -0.82748E-04   -0.11425E-02 10020   0.983E-01    0.243E-02
RMM:   2    -0.360311457118E+02    0.20674E-05   -0.15931E-04  9601   0.131E-01    0.142E-02
RMM:   3    -0.360311410216E+02    0.46903E-05   -0.40783E-05  9707   0.604E-02    0.463E-03
RMM:   4    -0.360311415755E+02   -0.55392E-06   -0.75662E-06 10133   0.291E-02    0.301E-03
RMM:   5    -0.360311419331E+02   -0.35764E-06   -0.12425E-06  9865   0.105E-02    0.118E-03
RMM:   6    -0.360311422778E+02   -0.34468E-06   -0.27931E-07 10323   0.513E-03    0.567E-04
RMM:   7    -0.360311426262E+02   -0.34839E-06   -0.58881E-08 10000   0.221E-03    0.132E-04
RMM:   8    -0.360311428003E+02   -0.17414E-06   -0.17686E-08  8806   0.102E-03    0.916E-05
RMM:   9    -0.360311431053E+02   -0.30494E-06   -0.17800E-08  7595   0.676E-04    0.473E-05
RMM:  10    -0.360311431652E+02   -0.59948E-07   -0.33625E-09  7176   0.365E-04    0.390E-05
RMM:  11    -0.360311433481E+02   -0.18284E-06   -0.11946E-08  7292   0.407E-04    0.192E-05
RMM:  12    -0.360311433613E+02   -0.13275E-07   -0.18288E-09  6478   0.197E-04    0.153E-05
RMM:  13    -0.360311433847E+02   -0.23313E-07   -0.11275E-09  6023   0.150E-04    0.677E-06
RMM:  14    -0.360311433892E+02   -0.45027E-08   -0.28149E-10  4592   0.936E-05    0.511E-06
RMM:  15    -0.360311433950E+02   -0.58765E-08   -0.10834E-10  4274   0.720E-05    0.273E-06
RMM:  16    -0.360311433968E+02   -0.17831E-08   -0.52403E-11  3928   0.590E-05    0.237E-06
RMM:  17    -0.360311433974E+02   -0.55979E-09   -0.54732E-12  3236   0.490E-05
  84 F= -.36505080E+02 E0= -.36505080E+02  d E =-.112438E-04
       N       E                     dE             d eps       ncg     rms          rms(c)
DAV:   1    -0.360311639089E+02   -0.20512E-04   -0.14472E-03 10348   0.349E-01    0.889E-03
RMM:   2    -0.360311635313E+02    0.37768E-06   -0.20776E-05  9602   0.475E-02    0.514E-03
RMM:   3    -0.360311629451E+02    0.58615E-06   -0.55023E-06  9706   0.222E-02    0.170E-03
RMM:   4    -0.360311630154E+02   -0.70274E-07   -0.96935E-07 10111   0.109E-02    0.113E-03
RMM:   5    -0.360311630635E+02   -0.48151E-07   -0.16796E-07  9823   0.384E-03    0.469E-04
RMM:   6    -0.360311631217E+02   -0.58203E-07   -0.39431E-08 10080   0.195E-03    0.231E-04
RMM:   7    -0.360311631851E+02   -0.63402E-07   -0.78295E-09  8584   0.862E-04    0.495E-05
RMM:   8    -0.360311632173E+02   -0.32167E-07   -0.22243E-09  7119   0.386E-04    0.329E-05
RMM:   9    -0.360311632850E+02   -0.67734E-07   -0.26489E-09  7142   0.279E-04    0.215E-05
RMM:  10    -0.360311632971E+02   -0.12092E-07   -0.42205E-10  6142   0.160E-04    0.144E-05
RMM:  11    -0.360311633388E+02   -0.41645E-07   -0.14687E-09  6442   0.163E-04    0.102E-05
RMM:  12    -0.360311633448E+02   -0.59824E-08   -0.36748E-10  4688   0.971E-05    0.556E-06
RMM:  13    -0.360311633498E+02   -0.49984E-08   -0.12528E-10  4345   0.769E-05    0.313E-06
RMM:  14    -0.360311633520E+02   -0.22058E-08   -0.57356E-11  4116   0.624E-05    0.204E-06
RMM:  15    -0.360311633534E+02   -0.14711E-08   -0.18970E-11  3534   0.519E-05    0.117E-06
RMM:  16    -0.360311633542E+02   -0.77489E-09   -0.16895E-11  3467   0.496E-05
  85 F= -.36505084E+02 E0= -.36505084E+02  d E =-.384744E-05
       N       E                     dE             d eps       ncg     rms          rms(c)
DAV:   1    -0.360312236176E+02   -0.60264E-04   -0.13025E-02 10068   0.105E+00    0.267E-02
RMM:   2    -0.360312205609E+02    0.30567E-05   -0.18716E-04  9602   0.142E-01    0.154E-02
RMM:   3    -0.360312157186E+02    0.48423E-05   -0.49509E-05  9708   0.666E-02    0.512E-03
RMM:   4    -0.360312164283E+02   -0.70972E-06   -0.87066E-06 10111   0.325E-02    0.337E-03
RMM:   5    -0.360312168152E+02   -0.38685E-06   -0.15139E-06  9823   0.115E-02    0.140E-03
RMM:   6    -0.360312172033E+02   -0.38807E-06   -0.35714E-07 10260   0.586E-03    0.696E-04
RMM:   7    -0.360312175956E+02   -0.39235E-06   -0.71357E-08 10006   0.259E-03    0.150E-04
RMM:   8    -0.360312177687E+02   -0.17305E-06   -0.20865E-08  9164   0.111E-03    0.101E-04
RMM:   9    -0.360312181236E+02   -0.35495E-06   -0.20466E-08  7810   0.737E-04    0.628E-05
RMM:  10    -0.360312181778E+02   -0.54145E-07   -0.35484E-09  7184   0.394E-04    0.442E-05
RMM:  11    -0.360312183894E+02   -0.21164E-06   -0.13972E-08  7298   0.446E-04    0.265E-05
RMM:  12    -0.360312184069E+02   -0.17549E-07   -0.23560E-09  6749   0.220E-04    0.171E-05
RMM:  13    -0.360312184313E+02   -0.24387E-07   -0.11748E-09  6285   0.171E-04    0.124E-05
RMM:  14    -0.360312184376E+02   -0.63155E-08   -0.39784E-10  5109   0.122E-04    0.715E-06
RMM:  15    -0.360312184430E+02   -0.53060E-08   -0.11066E-10  4732   0.845E-05    0.381E-06
RMM:  16    -0.360312184468E+02   -0.38183E-08   -0.89453E-11  4186   0.647E-05    0.268E-06
RMM:  17    -0.360312184469E+02   -0.17394E-09   -0.10618E-11  3425   0.474E-05
  86 F= -.36505091E+02 E0= -.36505091E+02  d E =-.108681E-04
       N       E                     dE             d eps       ncg     rms          rms(c)
DAV:   1    -0.360313282012E+02   -0.10975E-03   -0.52107E-02  9948   0.210E+00    0.535E-02
RMM:   2    -0.360313163297E+02    0.11872E-04   -0.74990E-04  9602   0.285E-01    0.309E-02
RMM:   3    -0.360312981378E+02    0.18192E-04   -0.19813E-04  9708   0.133E-01    0.103E-02
RMM:   4    -0.360313010304E+02   -0.28925E-05   -0.34858E-05 10111   0.650E-02    0.674E-03
RMM:   5    -0.360313024648E+02   -0.14344E-05   -0.60610E-06  9819   0.230E-02    0.279E-03
RMM:   6    -0.360313036941E+02   -0.12294E-05   -0.14363E-06 10246   0.117E-02    0.139E-03
RMM:   7    -0.360313048522E+02   -0.11580E-05   -0.28617E-07 10042   0.523E-03    0.300E-04
RMM:   8    -0.360313053301E+02   -0.47796E-06   -0.85146E-08 10195   0.222E-03    0.205E-04
RMM:   9    -0.360313063180E+02   -0.98787E-06   -0.69489E-08  9086   0.142E-03    0.124E-04
RMM:  10    -0.360313064618E+02   -0.14379E-06   -0.14322E-08  7651   0.729E-04    0.901E-05
RMM:  11    -0.360313070093E+02   -0.54748E-06   -0.46631E-08  7483   0.814E-04    0.489E-05
RMM:  12    -0.360313070618E+02   -0.52568E-07   -0.88984E-09  7270   0.396E-04    0.356E-05
RMM:  13    -0.360313071175E+02   -0.55686E-07   -0.32645E-09  7031   0.279E-04    0.229E-05
RMM:  14    -0.360313071346E+02   -0.17038E-07   -0.12721E-09  6157   0.203E-04    0.132E-05
RMM:  15    -0.360313071464E+02   -0.11790E-07   -0.32590E-10  5026   0.130E-04    0.764E-06
RMM:  16    -0.360313071560E+02   -0.96804E-08   -0.26646E-10  4547   0.891E-05    0.592E-06
RMM:  17    -0.360313071567E+02   -0.65938E-09   -0.37017E-11  3923   0.601E-05
  87 F= -.36505084E+02 E0= -.36505084E+02  d E =-.417925E-05
       N       E                     dE             d eps       ncg     rms          rms(c)
DAV:   1    -0.360313681678E+02   -0.61012E-04   -0.92758E-03 10196   0.886E-01    0.213E-02
RMM:   2    -0.360313666306E+02    0.15372E-05   -0.12819E-04  9602   0.117E-01    0.125E-02
RMM:   3    -0.360313632111E+02    0.34195E-05   -0.33221E-05  9706   0.544E-02    0.416E-03
RMM:   4    -0.360313636831E+02   -0.47199E-06   -0.60456E-06 10125   0.264E-02    0.270E-03
RMM:   5    -0.360313639679E+02   -0.28476E-06   -0.10136E-06  9845   0.945E-03    0.107E-03
RMM:   6    -0.360313642636E+02   -0.29578E-06   -0.23039E-07 10303   0.467E-03    0.544E-04
RMM:   7    -0.360313645738E+02   -0.31016E-06   -0.47711E-08  9945   0.204E-03    0.125E-04
RMM:   8    -0.360313647198E+02   -0.14599E-06   -0.14307E-08  8717   0.917E-04    0.861E-05
RMM:   9    -0.360313650027E+02   -0.28291E-06   -0.15967E-08  7521   0.631E-04    0.488E-05
RMM:  10    -0.360313650504E+02   -0.47660E-07   -0.26467E-09  7103   0.335E-04    0.378E-05
RMM:  11    -0.360313652186E+02   -0.16824E-06   -0.10774E-08  7284   0.384E-04    0.198E-05
