unknown system                          
           1
     2.481163    0.000000    0.000000
     1.240581    2.148750    0.000000
     0.000000    0.000000   50.000000
   C    B    N 
     2     1     1
Direct configuration=     1
   0.16666667  0.16666667  0.46600000
   0.50000000  0.50000000  0.46600000
   0.65000000  0.20000000  0.53400000
   0.98333333  0.53333333  0.53400000
unknown system                          
           1
     2.487224    0.000000    0.000000
     1.243612    2.152911    0.000000
     0.000000    0.000000   50.000000
   C    B    N 
     2     1     1
Direct configuration=     2
   0.16678994  0.16642007  0.46599155
   0.50007171  0.49985658  0.46599545
   0.65004420  0.19991164  0.53399084
   0.98309416  0.53381171  0.53402216
unknown system                          
           1
     2.484790    0.000000    0.000000
     1.242395    2.151240    0.000000
     0.000000    0.000000   50.000000
   C    B    N 
     2     1     1
Direct configuration=     3
   0.16674053  0.16651891  0.46599494
   0.50004297  0.49991407  0.46599728
   0.65002649  0.19994706  0.53399452
   0.98319002  0.53361996  0.53401326
unknown system                          
           1
     2.483174    0.000000    0.000000
     1.241587    2.150131    0.000000
     0.000000    0.000000   50.000000
   C    B    N 
     2     1     1
Direct configuration=     4
   0.16670770  0.16658458  0.46599720
   0.50002387  0.49995226  0.46599849
   0.65001471  0.19997059  0.53399696
   0.98325372  0.53349257  0.53400735
unknown system                          
           1
     2.483216    0.000000    0.000000
     1.241608    2.150187    0.000000
     0.000000    0.000000   50.000000
   C    B    N 
     2     1     1
Direct configuration=     5
   0.16676556  0.16646886  0.46599040
   0.50014298  0.49971400  0.46599342
   0.64985586  0.20028832  0.53399500
   0.98323561  0.53352882  0.53402118
unknown system                          
           1
     2.483221    0.000000    0.000000
     1.241610    2.150194    0.000000
     0.000000    0.000000   50.000000
   C    B    N 
     2     1     1
Direct configuration=     6
   0.16677207  0.16645582  0.46598964
   0.50015640  0.49968716  0.46599285
   0.64983796  0.20032411  0.53399478
   0.98323357  0.53353291  0.53402273
unknown system                          
           1
     2.483234    0.000000    0.000000
     1.241617    2.150140    0.000000
     0.000000    0.000000   50.000000
   C    B    N 
     2     1     1
Direct configuration=     7
   0.16681491  0.16637014  0.46598695
   0.50018836  0.49962323  0.46599054
   0.64980657  0.20038690  0.53399532
   0.98319017  0.53361972  0.53402718
unknown system                          
           1
     2.483273    0.000000    0.000000
     1.241636    2.149978    0.000000
     0.000000    0.000000   50.000000
   C    B    N 
     2     1     1
Direct configuration=     8
   0.16694341  0.16611310  0.46597889
   0.50028425  0.49943143  0.46598362
   0.64971239  0.20057529  0.53399696
   0.98305995  0.53388018  0.53404052
unknown system                          
           1
     2.483350    0.000000    0.000000
     1.241675    2.149653    0.000000
     0.000000    0.000000   50.000000
   C    B    N 
     2     1     1
Direct configuration=     9
   0.16720043  0.16559897  0.46596278
   0.50047604  0.49904780  0.46596978
   0.64952402  0.20095210  0.53400024
   0.98279951  0.53440113  0.53406720
unknown system                          
           1
     2.483335    0.000000    0.000000
     1.241667    2.149664    0.000000
     0.000000    0.000000   50.000000
   C    B    N 
     2     1     1
Direct configuration=    10
   0.16724899  0.16550184  0.46595924
   0.50053547  0.49892891  0.46596619
   0.64947332  0.20105351  0.53400358
   0.98274222  0.53451574  0.53407099
unknown system                          
           1
     2.483290    0.000000    0.000000
     1.241645    2.149694    0.000000
     0.000000    0.000000   50.000000
   C    B    N 
     2     1     1
Direct configuration=    11
   0.16739466  0.16521046  0.46594862
   0.50071379  0.49857224  0.46595541
   0.64932124  0.20135774  0.53401359
   0.98257032  0.53485957  0.53408238
unknown system                          
           1
     2.483200    0.000000    0.000000
     1.241600    2.149756    0.000000
     0.000000    0.000000   50.000000
   C    B    N 
     2     1     1
Direct configuration=    12
   0.16768600  0.16462770  0.46592737
   0.50107041  0.49785890  0.46593386
   0.64901706  0.20196618  0.53403362
   0.98222654  0.53554723  0.53410514
unknown system                          
           1
     2.483020    0.000000    0.000000
     1.241510    2.149879    0.000000
     0.000000    0.000000   50.000000
   C    B    N 
     2     1     1
Direct configuration=    13
   0.16826865  0.16346221  0.46588489
   0.50178363  0.49643226  0.46589077
   0.64840873  0.20318303  0.53407368
   0.98153900  0.53692250  0.53415067
unknown system                          
           1
     2.482661    0.000000    0.000000
     1.241330    2.150124    0.000000
     0.000000    0.000000   50.000000
   C    B    N 
     2     1     1
Direct configuration=    14
   0.16943389  0.16113137  0.46579992
   0.50320998  0.49357914  0.46580457
   0.64719215  0.20561659  0.53415378
   0.98016399  0.53967289  0.53424172
unknown system                          
           1
     2.482656    0.000000    0.000000
     1.241328    2.150138    0.000000
     0.000000    0.000000   50.000000
   C    B    N 
     2     1     1
Direct configuration=    15
   0.16950137  0.16099640  0.46579584
   0.50326844  0.49346220  0.46580040
   0.64712689  0.20574712  0.53415809
   0.98010330  0.53979428  0.53424567
unknown system                          
           1
     2.482643    0.000000    0.000000
     1.241321    2.150178    0.000000
     0.000000    0.000000   50.000000
   C    B    N 
     2     1     1
Direct configuration=    16
   0.16970380  0.16059147  0.46578359
   0.50344382  0.49311139  0.46578787
   0.64693114  0.20613869  0.53417103
   0.97992125  0.54015845  0.53425752
unknown system                          
           1
     2.482617    0.000000    0.000000
     1.241308    2.150257    0.000000
     0.000000    0.000000   50.000000
   C    B    N 
     2     1     1
Direct configuration=    17
   0.17010866  0.15978164  0.46575908
   0.50379458  0.49240977  0.46576281
   0.64653962  0.20692182  0.53419689
   0.97955714  0.54088677  0.53428121
unknown system                          
           1
     2.482564    0.000000    0.000000
     1.241282    2.150417    0.000000
     0.000000    0.000000   50.000000
   C    B    N 
     2     1     1
Direct configuration=    18
   0.17091835  0.15816203  0.46571008
   0.50449606  0.49100659  0.46571270
   0.64575663  0.20848801  0.53424863
   0.97882897  0.54234336  0.53432860
unknown system                          
           1
     2.482458    0.000000    0.000000
     1.241229    2.150736    0.000000
     0.000000    0.000000   50.000000
   C    B    N 
     2     1     1
Direct configuration=    19
   0.17253760  0.15492306  0.46561206
   0.50589892  0.48820043  0.46561248
   0.64419076  0.21162018  0.53435209
   0.97737272  0.54525633  0.53442337
unknown system                          
           1
     2.482247    0.000000    0.000000
     1.241123    2.151375    0.000000
     0.000000    0.000000   50.000000
   C    B    N 
     2     1     1
Direct configuration=    20
   0.17577563  0.14844608  0.46541604
   0.50870423  0.48258895  0.46541203
   0.64105949  0.21788358  0.53455902
   0.97446065  0.55108139  0.53461292
unknown system                          
           1
     2.482400    0.000000    0.000000
     1.241200    2.151255    0.000000
     0.000000    0.000000   50.000000
   C    B    N 
     2     1     1
Direct configuration=    21
   0.17678865  0.14641974  0.46534752
   0.50981479  0.48036753  0.46534344
   0.64001393  0.21997502  0.53463371
   0.97338264  0.55323770  0.53467533
unknown system                          
           1
     2.482859    0.000000    0.000000
     1.241429    2.150895    0.000000
     0.000000    0.000000   50.000000
   C    B    N 
     2     1     1
Direct configuration=    22
   0.17982787  0.14034039  0.46514198
   0.51314663  0.47370292  0.46513768
   0.63687707  0.22624970  0.53485778
   0.97014844  0.55970699  0.53486256
unknown system                          
           1
     2.482968    0.000000    0.000000
     1.241484    2.150809    0.000000
     0.000000    0.000000   50.000000
   C    B    N 
     2     1     1
Direct configuration=    23
   0.18055272  0.13889046  0.46509297
   0.51394128  0.47211341  0.46508862
   0.63612893  0.22774621  0.53491121
   0.96937708  0.56124992  0.53490720
unknown system                          
           1
     2.483125    0.000000    0.000000
     1.241562    2.150456    0.000000
     0.000000    0.000000   50.000000
   C    B    N 
     2     1     1
Direct configuration=    24
   0.18097823  0.13803938  0.46506854
   0.51431919  0.47135747  0.46506683
   0.63572438  0.22855540  0.53493230
   0.96897821  0.56204776  0.53493233
unknown system                          
           1
     2.483319    0.000000    0.000000
     1.241659    2.150019    0.000000
     0.000000    0.000000   50.000000
   C    B    N 
     2     1     1
Direct configuration=    25
   0.18150314  0.13698945  0.46503840
   0.51478539  0.47042491  0.46503997
   0.63522533  0.22955363  0.53495832
   0.96848615  0.56303201  0.53496331
unknown system                          
           1
     2.483374    0.000000    0.000000
     1.241687    2.149994    0.000000
     0.000000    0.000000   50.000000
   C    B    N 
     2     1     1
Direct configuration=    26
   0.18180965  0.13637635  0.46502152
   0.51514528  0.46970508  0.46502561
   0.63486125  0.23028186  0.53496899
   0.96818383  0.56363671  0.53498388
unknown system                          
           1
     2.483434    0.000000    0.000000
     1.241717    2.149966    0.000000
     0.000000    0.000000   50.000000
   C    B    N 
     2     1     1
Direct configuration=    27
   0.18214264  0.13571027  0.46500319
   0.51553626  0.46892306  0.46501000
   0.63446571  0.23107302  0.53498059
   0.96785539  0.56429366  0.53500622
unknown system                          
           1
     2.483456    0.000000    0.000000
     1.241728    2.150162    0.000000
     0.000000    0.000000   50.000000
   C    B    N 
     2     1     1
Direct configuration=    28
   0.18253509  0.13492532  0.46498958
   0.51590007  0.46819535  0.46499651
   0.63411559  0.23177334  0.53499006
   0.96744925  0.56510599  0.53502386
unknown system                          
           1
     2.483472    0.000000    0.000000
     1.241736    2.150307    0.000000
     0.000000    0.000000   50.000000
   C    B    N 
     2     1     1
Direct configuration=    29
   0.18282489  0.13434569  0.46497953
   0.51616872  0.46765800  0.46498654
   0.63385705  0.23229047  0.53499705
   0.96714934  0.56570584  0.53503688
unknown system                          
           1
     2.483505    0.000000    0.000000
     1.241753    2.150597    0.000000
     0.000000    0.000000   50.000000
   C    B    N 
     2     1     1
Direct configuration=    30
   0.18340444  0.13318652  0.46495943
   0.51670598  0.46658336  0.46496661
   0.63334001  0.23332466  0.53501104
   0.96654957  0.56690545  0.53506292
unknown system                          
           1
     2.483393    0.000000    0.000000
     1.241697    2.150652    0.000000
     0.000000    0.000000   50.000000
   C    B    N 
     2     1     1
Direct configuration=    31
   0.18367167  0.13265202  0.46495161
   0.51697320  0.46604889  0.46495797
   0.63307090  0.23386291  0.53501906
   0.96628424  0.56743617  0.53507136
unknown system                          
           1
     2.483059    0.000000    0.000000
     1.241530    2.150815    0.000000
     0.000000    0.000000   50.000000
   C    B    N 
     2     1     1
Direct configuration=    32
   0.18447332  0.13104857  0.46492815
   0.51777483  0.46444553  0.46493204
   0.63226360  0.23547761  0.53504314
   0.96548825  0.56902829  0.53509668
unknown system                          
           1
     2.482391    0.000000    0.000000
     1.241196    2.151142    0.000000
     0.000000    0.000000   50.000000
   C    B    N 
     2     1     1
Direct configuration=    33
   0.18607651  0.12784190  0.46488123
   0.51937798  0.46123904  0.46488018
   0.63064913  0.23870676  0.53509128
   0.96389639  0.57221230  0.53514730
unknown system                          
           1
     2.481055    0.000000    0.000000
     1.240528    2.151795    0.000000
     0.000000    0.000000   50.000000
   C    B    N 
     2     1     1
Direct configuration=    34
   0.18928241  0.12142953  0.46478740
   0.52258378  0.45482704  0.46477646
   0.62742067  0.24516409  0.53518758
   0.96071315  0.57857934  0.53524856
unknown system                          
           1
     2.481832    0.000000    0.000000
     1.240916    2.151415    0.000000
     0.000000    0.000000   50.000000
   C    B    N 
     2     1     1
Direct configuration=    35
   0.18741907  0.12515654  0.46484196
   0.52072050  0.45855384  0.46483676
   0.62929712  0.24141095  0.53513160
   0.96256331  0.57487867  0.53518969
unknown system                          
           1
     2.481914    0.000000    0.000000
     1.240957    2.151320    0.000000
     0.000000    0.000000   50.000000
   C    B    N 
     2     1     1
Direct configuration=    36
   0.18785687  0.12428089  0.46482972
   0.52115210  0.45769055  0.46482425
   0.62886866  0.24226795  0.53514577
   0.96212237  0.57576062  0.53520026
unknown system                          
           1
     2.482158    0.000000    0.000000
     1.241079    2.151034    0.000000
     0.000000    0.000000   50.000000
   C    B    N 
     2     1     1
Direct configuration=    37
   0.18917034  0.12165382  0.46479300
   0.52244696  0.45510057  0.46478671
   0.62758324  0.24483905  0.53518830
   0.96079946  0.57840657  0.53523198
unknown system                          
           1
     2.482647    0.000000    0.000000
     1.241324    2.150461    0.000000
     0.000000    0.000000   50.000000
   C    B    N 
     2     1     1
Direct configuration=    38
   0.19179762  0.11639897  0.46471957
   0.52503702  0.44991993  0.46471164
   0.62501205  0.24998193  0.53527336
   0.95815331  0.58369917  0.53529542
unknown system                          
           1
     2.483626    0.000000    0.000000
     1.241812    2.149317    0.000000
     0.000000    0.000000   50.000000
   C    B    N 
     2     1     1
Direct configuration=    39
   0.19705358  0.10588650  0.46457271
   0.53021852  0.43955588  0.46456150
   0.61986831  0.26027043  0.53544348
   0.95285959  0.59428720  0.53542230
unknown system                          
           1
     2.482905    0.000000    0.000000
     1.241453    2.150159    0.000000
     0.000000    0.000000   50.000000
   C    B    N 
     2     1     1
Direct configuration=    40
   0.19318238  0.11362932  0.46468082
   0.52640216  0.44718937  0.46467203
   0.62365686  0.25269258  0.53531825
   0.95675860  0.58648873  0.53532890
unknown system                          
           1
     2.483331    0.000000    0.000000
     1.241665    2.150189    0.000000
     0.000000    0.000000   50.000000
   C    B    N 
     2     1     1
Direct configuration=    41
   0.19458014  0.11083335  0.46464088
   0.52794054  0.44411260  0.46463647
   0.62209258  0.25582119  0.53535998
   0.95538674  0.58923286  0.53536267
unknown system                          
           1
     2.483464    0.000000    0.000000
     1.241732    2.150199    0.000000
     0.000000    0.000000   50.000000
   C    B    N 
     2     1     1
Direct configuration=    42
   0.19501792  0.10995767  0.46462837
   0.52842236  0.44314896  0.46462533
   0.62160265  0.25680106  0.53537305
   0.95495708  0.59009231  0.53537325
unknown system                          
           1
     2.483541    0.000000    0.000000
     1.241770    2.150307    0.000000
     0.000000    0.000000   50.000000
   C    B    N 
     2     1     1
Direct configuration=    43
   0.19556277  0.10886794  0.46461708
   0.52892718  0.44213920  0.46461839
   0.62107108  0.25786428  0.53537918
   0.95443898  0.59112858  0.53538536
unknown system                          
           1
     2.483771    0.000000    0.000000
     1.241886    2.150632    0.000000
     0.000000    0.000000   50.000000
   C    B    N 
     2     1     1
Direct configuration=    44
   0.19719722  0.10559892  0.46458320
   0.53044156  0.43911008  0.46459756
   0.61947643  0.26105378  0.53539757
   0.95288479  0.59423722  0.53542167
unknown system                          
           1
     2.483605    0.000000    0.000000
     1.241802    2.150594    0.000000
     0.000000    0.000000   50.000000
   C    B    N 
     2     1     1
Direct configuration=    45
   0.19768584  0.10462160  0.46457643
   0.53097611  0.43804097  0.46459167
   0.61899565  0.26201545  0.53540141
   0.95234241  0.59532198  0.53543049
unknown system                          
           1
     2.483105    0.000000    0.000000
     1.241552    2.150478    0.000000
     0.000000    0.000000   50.000000
   C    B    N 
     2     1     1
Direct configuration=    46
   0.19915170  0.10168958  0.46455611
   0.53257976  0.43483357  0.46457400
   0.61755329  0.26490054  0.53541295
   0.95071526  0.59857631  0.53545694
unknown system                          
           1
     2.482951    0.000000    0.000000
     1.241476    2.150444    0.000000
     0.000000    0.000000   50.000000
   C    B    N 
     2     1     1
Direct configuration=    47
   0.19976577  0.10046136  0.46455217
   0.53317618  0.43364066  0.46456742
   0.61694128  0.26612463  0.53541772
   0.95011678  0.59977336  0.53546269
unknown system                          
           1
     2.482491    0.000000    0.000000
     1.241246    2.150341    0.000000
     0.000000    0.000000   50.000000
   C    B    N 
     2     1     1
Direct configuration=    48
   0.20160803  0.09677664  0.46454037
   0.53496548  0.43006185  0.46454766
   0.61510519  0.26979694  0.53543203
   0.94832130  0.60336457  0.53547994
unknown system                          
           1
     2.481570    0.000000    0.000000
     1.240785    2.150137    0.000000
     0.000000    0.000000   50.000000
   C    B    N 
     2     1     1
Direct configuration=    49
   0.20529273  0.08940686  0.46451675
   0.53854424  0.42290389  0.46450816
   0.61143285  0.27714192  0.53546066
   0.94473019  0.61054733  0.53551443
unknown system                          
           1
     2.479728    0.000000    0.000000
     1.239865    2.149727    0.000000
     0.000000    0.000000   50.000000
   C    B    N 
     2     1     1
Direct configuration=    50
   0.21266282  0.07466589  0.46446952
   0.54570245  0.40858661  0.46442916
   0.60408747  0.29183329  0.53551791
   0.93754727  0.62491421  0.53558341
unknown system                          
           1
     2.480924    0.000000    0.000000
     1.240462    2.149993    0.000000
     0.000000    0.000000   50.000000
   C    B    N 
     2     1     1
Direct configuration=    51
   0.20787761  0.08423681  0.46450018
   0.54105481  0.41788244  0.46448044
   0.60885663  0.28229458  0.53548074
   0.94221095  0.61558618  0.53553863
unknown system                          
           1
     2.480960    0.000000    0.000000
     1.240481    2.150021    0.000000
     0.000000    0.000000   50.000000
   C    B    N 
     2     1     1
Direct configuration=    52
   0.20833701  0.08331796  0.46449713
   0.54151571  0.41696058  0.46447627
   0.60839669  0.28321453  0.53548460
   0.94175059  0.61650693  0.53554201
unknown system                          
           1
     2.481069    0.000000    0.000000
     1.240535    2.150106    0.000000
     0.000000    0.000000   50.000000
   C    B    N 
     2     1     1
Direct configuration=    53
   0.20971520  0.08056144  0.46448796
   0.54289839  0.41419504  0.46446374
   0.60701686  0.28597435  0.53549617
   0.94036955  0.61926917  0.53555214
unknown system                          
           1
     2.481288    0.000000    0.000000
     1.240645    2.150275    0.000000
     0.000000    0.000000   50.000000
   C    B    N 
     2     1     1
Direct configuration=    54
   0.21247147  0.07504863  0.46446962
   0.54566365  0.40866418  0.46443868
   0.60425731  0.29149377  0.53551930
   0.93760757  0.62479343  0.53557239
unknown system                          
           1
     2.481725    0.000000    0.000000
     1.240864    2.150614    0.000000
     0.000000    0.000000   50.000000
   C    B    N 
     2     1     1
Direct configuration=    55
   0.21798358  0.06402386  0.46443295
   0.55119372  0.39760333  0.46438857
   0.59873865  0.30253174  0.53556558
   0.93208405  0.63584107  0.53561290
unknown system                          
           1
     2.482600    0.000000    0.000000
     1.241301    2.151291    0.000000
     0.000000    0.000000   50.000000
   C    B    N 
     2     1     1
Direct configuration=    56
   0.22900606  0.04197780  0.46435961
   0.56225213  0.37548512  0.46428834
   0.58770307  0.32460421  0.53565813
   0.92103874  0.65793287  0.53569393
unknown system                          
           1
     2.482275    0.000000    0.000000
     1.241139    2.151040    0.000000
     0.000000    0.000000   50.000000
   C    B    N 
     2     1     1
Direct configuration=    57
   0.22491938  0.05015157  0.46438681
   0.55815213  0.38368564  0.46432551
   0.59179461  0.31642065  0.53562380
   0.92513389  0.64974214  0.53566388
unknown system                          
           1
     2.482751    0.000000    0.000000
     1.241376    2.150880    0.000000
     0.000000    0.000000   50.000000
   C    B    N 
     2     1     1
Direct configuration=    58
   0.22519361  0.04960291  0.46437792
   0.55849846  0.38299311  0.46433653
   0.59151416  0.31698165  0.53562546
   0.92479377  0.65042233  0.53566009
unknown system                          
           1
     2.482951    0.000000    0.000000
     1.241476    2.150812    0.000000
     0.000000    0.000000   50.000000
   C    B    N 
     2     1     1
Direct configuration=    59
   0.22530852  0.04937301  0.46437420
   0.55864358  0.38270292  0.46434114
   0.59139665  0.31721672  0.53562615
   0.92465125  0.65070735  0.53565850
unknown system                          
           1
     2.483349    0.000000    0.000000
     1.241675    2.150678    0.000000
     0.000000    0.000000   50.000000
   C    B    N 
     2     1     1
Direct configuration=    60
   0.22553835  0.04891319  0.46436675
   0.55893383  0.38212253  0.46435038
   0.59116162  0.31768688  0.53562754
   0.92436620  0.65127740  0.53565533
unknown system                          
           1
     2.484147    0.000000    0.000000
     1.242074    2.150410    0.000000
     0.000000    0.000000   50.000000
   C    B    N 
     2     1     1
Direct configuration=    61
   0.22599803  0.04799350  0.46435186
   0.55951437  0.38096168  0.46436885
   0.59069152  0.31862726  0.53563031
   0.92379608  0.65241756  0.53564898
unknown system                          
           1
     2.483626    0.000000    0.000000
     1.241813    2.150585    0.000000
     0.000000    0.000000   50.000000
   C    B    N 
     2     1     1
Direct configuration=    62
   0.22569776  0.04859426  0.46436159
   0.55913515  0.38171998  0.46435678
   0.59099860  0.31801298  0.53562850
   0.92416850  0.65167278  0.53565313
unknown system                          
           1
     2.483605    0.000000    0.000000
     1.241803    2.150450    0.000000
     0.000000    0.000000   50.000000
   C    B    N 
     2     1     1
Direct configuration=    63
   0.22593147  0.04812710  0.46435923
   0.55928423  0.38142155  0.46436993
   0.59073465  0.31854073  0.53562533
   0.92404966  0.65191062  0.53564551
unknown system                          
           1
     2.483592    0.000000    0.000000
     1.241796    2.150359    0.000000
     0.000000    0.000000   50.000000
   C    B    N 
     2     1     1
Direct configuration=    64
   0.22608816  0.04781388  0.46435765
   0.55938418  0.38122147  0.46437875
   0.59055769  0.31889457  0.53562320
   0.92396998  0.65207009  0.53564041
unknown system                          
           1
     2.483376    0.000000    0.000000
     1.241688    2.150341    0.000000
     0.000000    0.000000   50.000000
   C    B    N 
     2     1     1
Direct configuration=    65
   0.22621061  0.04756888  0.46436586
   0.55952561  0.38093871  0.46438840
   0.59042798  0.31915396  0.53561481
   0.92383581  0.65233846  0.53563093
unknown system                          
           1
     2.482727    0.000000    0.000000
     1.241363    2.150287    0.000000
     0.000000    0.000000   50.000000
   C    B    N 
     2     1     1
Direct configuration=    66
   0.22657795  0.04683389  0.46439050
   0.55994991  0.38009042  0.46441736
   0.59003884  0.31993212  0.53558964
   0.92343330  0.65314357  0.53560250
unknown system                          
           1
     2.481430    0.000000    0.000000
     1.240713    2.150179    0.000000
     0.000000    0.000000   50.000000
   C    B    N 
     2     1     1
Direct configuration=    67
   0.22731267  0.04536386  0.46443978
   0.56079853  0.37839379  0.46447528
   0.58926055  0.32148850  0.53553929
   0.92262825  0.65475385  0.53554565
unknown system                          
           1
     2.478836    0.000000    0.000000
     1.239414    2.149963    0.000000
     0.000000    0.000000   50.000000
   C    B    N 
     2     1     1
Direct configuration=    68
   0.22878217  0.04242366  0.46453834
   0.56249585  0.37500037  0.46459111
   0.58770390  0.32460141  0.53543861
   0.92101809  0.65797455  0.53543194
unknown system                          
           1
     2.480138    0.000000    0.000000
     1.240066    2.150072    0.000000
     0.000000    0.000000   50.000000
   C    B    N 
     2     1     1
Direct configuration=    69
   0.22804448  0.04389964  0.46448887
   0.56164380  0.37670386  0.46453297
   0.58848534  0.32303873  0.53548915
   0.92182639  0.65635776  0.53548902
unknown system                          
           1
     2.480130    0.000000    0.000000
     1.240062    2.150078    0.000000
     0.000000    0.000000   50.000000
   C    B    N 
     2     1     1
Direct configuration=    70
   0.22808193  0.04382474  0.46449136
   0.56167762  0.37663621  0.46453548
   0.58845153  0.32310635  0.53548671
   0.92178892  0.65643269  0.53548646
unknown system                          
           1
     2.480107    0.000000    0.000000
     1.240050    2.150098    0.000000
     0.000000    0.000000   50.000000
   C    B    N 
     2     1     1
Direct configuration=    71
   0.22819429  0.04360005  0.46449884
   0.56177908  0.37643327  0.46454301
   0.58835011  0.32330919  0.53547938
   0.92167653  0.65665749  0.53547877
unknown system                          
           1
     2.480060    0.000000    0.000000
     1.240027    2.150138    0.000000
     0.000000    0.000000   50.000000
   C    B    N 
     2     1     1
Direct configuration=    72
   0.22841901  0.04315068  0.46451380
   0.56198199  0.37602739  0.46455807
   0.58814727  0.32371486  0.53546473
   0.92145173  0.65710707  0.53546340
unknown system                          
           1
     2.479967    0.000000    0.000000
     1.239980    2.150217    0.000000
     0.000000    0.000000   50.000000
   C    B    N 
     2     1     1
Direct configuration=    73
   0.22886843  0.04225195  0.46454371
   0.56238781  0.37521564  0.46458819
   0.58774161  0.32452620  0.53543543
   0.92100216  0.65800621  0.53543267
unknown system                          
           1
     2.479781    0.000000    0.000000
     1.239885    2.150376    0.000000
     0.000000    0.000000   50.000000
   C    B    N 
     2     1     1
Direct configuration=    74
   0.22976725  0.04045455  0.46460354
   0.56319941  0.37359220  0.46464843
   0.58693030  0.32614881  0.53537683
   0.92010304  0.65980444  0.53537120
unknown system                          
           1
     2.479408    0.000000    0.000000
     1.239697    2.150694    0.000000
     0.000000    0.000000   50.000000
   C    B    N 
     2     1     1
Direct configuration=    75
   0.23156474  0.03686003  0.46472320
   0.56482250  0.37034556  0.46476892
   0.58530782  0.32939379  0.53525962
   0.91830494  0.66340062  0.53524826
unknown system                          
           1
     2.478663    0.000000    0.000000
     1.239321    2.151330    0.000000
     0.000000    0.000000   50.000000
   C    B    N 
     2     1     1
Direct configuration=    76
   0.23515919  0.02967204  0.46496253
   0.56806820  0.36385323  0.46500988
   0.58206334  0.33588280  0.53502521
   0.91470928  0.67059193  0.53500238
unknown system                          
           1
     2.477173    0.000000    0.000000
     1.238567    2.152602    0.000000
     0.000000    0.000000   50.000000
   C    B    N 
     2     1     1
Direct configuration=    77
   0.24234594  0.01530032  0.46544117
   0.57455766  0.35087243  0.46549182
   0.57557631  0.34885697  0.53455639
   0.90752010  0.68497028  0.53451061
unknown system                          
           1
     2.477754    0.000000    0.000000
     1.238861    2.152107    0.000000
     0.000000    0.000000   50.000000
   C    B    N 
     2     1     1
Direct configuration=    78
   0.23954667  0.02089819  0.46525463
   0.57202999  0.35592853  0.46530399
   0.57810303  0.34380346  0.53473911
   0.91032031  0.67936983  0.53470227
unknown system                          
           1
     2.477886    0.000000    0.000000