 -7.2046512e-01   5.5735090e-05
 -1.7029063e+00   2.5827834e-05
  3.7024961e+00   8.7765860e-05
  4.8197327e+00   9.4520583e-06
 -4.9062934e+00   3.4878938e-04
  1.1129342e+00   8.9284877e-05
 -1.8890816e-01   1.0103302e-04
 -4.5986109e+00   2.1232318e-05
  9.8240242e+00   1.7092981e-04
 -2.5690689e+00   3.1597624e-04
 -1.4353547e+00   7.5073977e-04
 -1.9012289e-01   7.5244236e-05
  1.7405389e-01   1.5675234e-04
 -1.4490447e+00   2.9536459e-04
  7.9886043e-01   1.1579032e-04
  2.5368648e+00   4.7344842e-04
  2.0417922e+00   6.3222084e-05
 -3.3116603e+00   1.5192345e-04
  4.0305195e+00   7.8064733e-04
  5.2589946e+00   1.4412754e-04
 -8.5193485e-01   6.6917193e-05
 -1.1457175e+00   1.7550042e-04
 -9.4620937e-01   4.2518502e-04
  2.1096005e+00   4.8990292e-05
  3.2079725e+00   8.9631404e-04
  1.7673807e+00   3.6495272e-04
 -1.6603139e-01   2.2025865e-04
 -1.0051490e+00   2.6838860e-04
  2.5647004e+00   4.7764220e-04
 -2.0080569e+00   4.2954998e-04
  6.8813281e+00   1.9875736e-04
  1.2594966e+00   3.0602740e-05
 -2.5178890e+00   6.8440804e-06
  3.0557926e+00   1.8888585e-04
 -2.0118952e+00   7.5897423e-04
 -1.5224961e+00   3.0800223e-04
 -9.0228045e-01   3.3321674e-04
  4.1793389e+00   2.9973345e-04
 -2.4895947e+00   4.0598196e-04
  3.1890455e-01   1.1064374e-04
 -7.3178762e-01   9.3260582e-04
  3.9597160e-01   8.8274728e-06
  1.0977328e+00   7.6417782e-05
 -1.7332562e+00   4.9757818e-04
  8.2871807e-01   1.5871323e-04
 -5.0650339e-04   6.5412038e-05
 -4.7278347e+00   3.4492346e-04
 -1.5304239e+00   2.7704756e-03
  1.7332508e-01   1.5464828e-04
  1.3019604e-02   4.1174240e-04
  1.0697340e+00   1.2939275e-05
  1.2783737e+00   2.0168687e-03
  2.4762998e+00   1.7377743e-04
 -3.0056381e-01   1.8390788e-03
  1.5593909e+00   1.6977904e-04
  3.6711621e+00   6.5808614e-05
  1.1024571e-01   3.3433008e-04
  2.0913250e+00   1.5292614e-04
  8.8204937e-03   3.0960425e-04
  3.6458685e+00   3.8247538e-04
 -2.4428236e+00   3.3576544e-05
 -2.1697067e-01   2.5742006e-04
 -1.2323366e-02   1.3074935e-04
 -4.7029819e+00   1.4041075e-04
 -1.7286258e+00   3.4116610e-04
 -1.3177052e+00   7.4789947e-05
  3.4597310e-01   1.8586883e-05
 -1.2040966e+00   3.3759748e-05
 -2.6311283e+00   2.6216374e-05
  2.2808712e-02   3.4567600e-04
 -2.1507490e+00   7.7840104e-04
 -6.6562212e-01   1.2808364e-04
  6.2996864e-01   5.7211221e-04
  1.9511448e-01   1.1498409e-03
  2.7336772e-03   4.7770052e-04
 -1.1930901e+00   5.2574025e-05
 -6.2137312e-01   1.4771657e-03
 -2.2328327e+00   3.0765539e-05
 -1.9661929e-03   3.5662804e-04
  1.2657057e-01   6.3651544e-04
  2.1968602e-01   8.1415841e-04
  1.2408249e+00   1.5692339e-04
  2.1750718e-01   3.7158394e-04
  4.8486609e-03   7.9981878e-04
 -1.0315583e+00   6.7970128e-04
 -1.8927276e-01   9.6343909e-05
  1.0588821e+00   2.8686734e-05
 -6.1795664e-01   1.5299345e-04
  3.9824478e-02   8.2785619e-04
 -1.8145993e+00   3.0585952e-04
 -6.4277858e-01   6.2388870e-05
  1.6233071e+00   1.7185562e-04
 -2.3307321e+00   2.9215161e-04
  5.9992397e-01   1.9087186e-04
 -1.3900660e-02   2.3332422e-04
  2.2908435e+00   1.2541514e-05
  1.4171007e-02   1.3154709e-03
  1.3359424e-01   1.1696846e-05
 -5.4228678e-03   1.1206587e-03
 -1.7301546e+00   1.2407814e-04
  2.2208879e-02   1.3360418e-03
  4.5464784e-01   6.7595474e-04
 -4.3500778e-01   1.2408398e-03
 -7.0567784e-04   4.8192038e-04
  1.4829397e-01   1.7126597e-05
 -8.8312086e-03   9.8513567e-04
 -8.8596148e-03   2.9309691e-04
 -2.0933230e-03   9.1718842e-04
 -1.9715080e-01   2.7816328e-05
 -1.3291636e-01   3.7775922e-04
  3.0557441e-02   3.0698680e-05
  2.6426736e-02   1.0117837e-03
  6.1951596e-01   7.4917555e-04
  1.6187866e-01   9.7243564e-04
 -2.0371117e-03   5.4563547e-04
  3.4297876e-02   3.6554725e-04
 -3.3174342e-04   2.2968515e-04
  9.8161861e-02   1.8320412e-03
 -6.5110311e-05   6.5830437e-04
 -4.1450647e-04   3.1083348e-04
 -8.0804545e-03   8.8996327e-05
 -5.7842867e-03   7.0592551e-04
  7.2436625e-01   1.9291737e-04
  1.3687921e-02   4.3988528e-04
 -4.8917841e-02   1.3469801e-03
 -1.4374789e+00   7.6092844e-04
  6.4441352e-03   2.4148914e-04
  3.1862714e-04   1.1257028e-03
  4.5477653e+00   1.5612534e-04
 -1.6202651e-02   2.5863916e-04
  4.6605440e-03   2.3294736e-03
 -3.2519817e-02   4.4317218e-05
  2.1743232e-02   4.8080162e-04
 -7.2175241e-03   5.3832226e-04
  1.9916981e-02   3.6149626e-04
 -9.6883980e-04   3.1901422e-04
 -1.3636616e-02   2.0835132e-03
  4.9697985e-03   2.1971772e-04
 -5.8859652e-03   1.8332716e-03
 -2.1530217e-01   5.8639713e-04
  1.2873535e+00   1.6538064e-05
 -5.4558992e-01   1.0947324e-04
 -3.0450996e-03   3.7970342e-04
 -1.9168016e-02   2.9659705e-04
 -5.0039026e-03   5.3713372e-04
  2.4638255e-03   4.5021781e-04
  1.2693862e-02   1.0009818e-03
 -6.2471505e-02   2.8349060e-04
 -9.2311300e-02   1.9478649e-04
  1.0505836e-01   3.9725559e-04
  7.9105850e-03   1.2859021e-04
 -2.7087930e-01   5.6370412e-04
 -6.7857639e-03   3.6932185e-04
  8.3664770e-04   1.3229677e-03
 -4.5398357e-03   1.7962393e-03
  6.4320657e-03   1.3845979e-04
 -1.6189608e-03   1.2340745e-03
  4.2486708e-03   4.0201863e-04
  1.3294842e-02   1.9185781e-04
  5.6600072e-03   7.5255224e-04
  6.0197269e-03   2.6321452e-04
 -4.1686087e-03   7.3360623e-04
 -7.4094462e-01   9.0421090e-05
 -4.5242829e+00   4.8386843e-05
  9.1508711e-03   1.5632753e-04
  1.0191768e-02   2.5106233e-04
 -3.4180018e-01   6.1636860e-04
 -2.6929942e-01   3.4623375e-04
  1.9514140e+00   4.1198844e-05
 -1.1741890e+00   1.3113582e-04
  4.9772100e-03   2.6957726e-04
  6.2520944e-02   8.8123204e-05
 -6.4974921e-03   3.1809643e-04
 -2.1992552e-01   1.4551219e-03
 -5.8479067e-03   4.4335291e-04
 -8.0530655e-01   3.0185183e-04
  7.2051215e-01   3.6495406e-04
 -5.0390787e-02   3.1005757e-04
 -3.3638652e-02   6.0231774e-04
 -1.6174455e+00   3.8321436e-04
  1.5925279e+00   1.5639658e-05
  7.1386361e-01   1.2185486e-04
 -1.7038901e-01   6.9283461e-04
  1.3466249e-01   2.6144026e-04
  1.0467500e-03   3.4069896e-04
  2.1937406e+00   8.6393295e-05
  1.7967020e-04   3.8024702e-04
  1.1145466e-02   3.8149365e-04
  3.0332649e-01   8.6927146e-04
  1.4068503e+00   1.9968688e-04
  9.5082617e-01   6.2782789e-04
 -5.4144686e-01   1.8184599e-04
  2.3255241e+00   7.2420560e-05
 -1.0489399e+00   6.1984465e-04
 -1.8470484e+00   2.1325075e-05
  1.1908951e-01   2.6756458e-04
  1.9202766e-03   7.9304771e-04
  7.4927562e-01   2.1726702e-04
  1.4675625e-01   4.6928471e-04
 -2.9789260e-01   3.5184718e-04
 -6.3263468e-02   1.8027711e-05
  8.4373277e-01   2.3572769e-05
 -6.0047162e-01   2.5320571e-04
 -2.5951850e+00   1.5505560e-04
 -3.6549440e-04   3.2873487e-04
  1.8580438e-01   1.3023200e-03
  2.2794455e-03   2.9269123e-04
 -1.2026409e-02   6.3028320e-04
  2.5564147e-02   4.7879785e-04
  4.2874151e-01   2.5606310e-04
 -2.2603518e-01   3.4964489e-04
 -2.5470747e-02   5.1353878e-04
  6.7360127e-01   1.0047444e-04
 -2.8974409e-03   6.1635592e-04
 -5.8404720e-01   1.6161073e-03
  1.5844855e-02   8.8569010e-04
  1.7539817e+00   5.3197989e-05
  3.0320792e+00   1.3550909e-05
  1.1835244e-01   6.8831294e-05
  3.4348705e+00   1.8113754e-04
 -1.4491731e+00   1.2020928e-04
  1.4358269e+00   3.9144485e-05
  9.8492749e-02   1.0893669e-04
  2.2759071e-02   5.3900283e-05
 -1.7928259e+00   4.0579011e-04
  1.5138854e-01   1.3085709e-04
  1.3271432e-01   3.9552659e-04
  1.4858243e-01   1.0326677e-04
 -4.6481875e-01   8.7975297e-04
  1.7908045e+00   1.8394033e-04
  1.9855007e+00   9.6180731e-05
  6.5520354e-02   4.7997118e-04
  1.2484340e-01   1.4148116e-04
 -1.4333501e+00   1.2628481e-04
  3.5912138e-01   1.1808352e-04
  1.6893868e+00   3.4976166e-04
 -9.7509794e-04   1.7729798e-06
 -6.9826096e-01   3.8970324e-05
  6.5260476e-01   3.8906664e-04
 -1.6410913e+00   1.4624584e-05
  2.9696867e-02   1.9795043e-04
  8.5879850e-01   8.4785293e-05
  6.3021842e-04   9.2829874e-04
  1.4614279e+00   3.5442368e-04
  2.3491323e+00   3.4362945e-04
 -3.4800431e-01   1.1293984e-03
 -8.8433099e-01   3.2349781e-05
 -3.3655122e-01   3.7764086e-04
 -4.7982299e-01   8.2045517e-07
 -3.5276237e-01   2.8601693e-05
 -8.1935573e-01   1.2212018e-03
  6.5571684e-01   1.3550058e-04
 -1.0142995e-01   2.1043158e-04
 -3.3290261e-01   3.2429714e-05
 -1.2389658e-01   7.7065855e-04
 -9.0720892e-01   4.0631901e-05
  4.0114708e-03   7.1944296e-04
 -6.8024985e-02   4.7422491e-06
  4.0097702e-02   1.0291672e-04
  1.0490417e-01   1.9902911e-04
  1.3391409e+00   4.6056457e-04
 -4.3471698e-02   2.2072755e-03
 -1.0397407e+00   7.8728603e-04
 -1.2397826e+00   1.0526814e-03
  6.3955826e-03   9.7290707e-05
  1.3027428e-02   2.0772114e-04
 -6.0878551e-01   8.7209577e-05
  6.1800187e-03   1.2711915e-03
  8.7131971e-01   8.1135193e-04
 -3.4339142e-03   7.1270770e-04
  3.1945605e+00   3.2808799e-05
  1.1901535e+00   3.1683649e-04
  2.8434187e-01   4.9477094e-04
  1.5929550e+00   7.3424150e-04
 -1.8169727e-03   2.2127102e-03
  1.5724822e+00   2.5438231e-03
  1.1513760e+00   3.1789384e-04
 -5.6552254e-02   1.7500794e-04
 -3.9509349e-03   2.6152362e-04
 -2.5889191e-01   1.6258878e-04
 -3.1572694e-03   1.0835760e-04
 -2.3119166e+00   1.3492091e-04
  2.8419965e-03   4.6942665e-04
  1.3225161e-02   1.3214580e-03
 -6.4824414e-01   1.0191388e-04
  8.6265856e-01   7.7050825e-04
 -7.4826656e-03   1.4449634e-03
  3.0817606e+00   1.7172858e-04
 -6.0952902e-03   4.3398314e-04
 -1.0828613e-02   1.1627712e-04
 -4.4647059e-03   7.8793091e-05
 -1.4853598e-01   1.5174011e-04
  4.1454563e+00   2.4357749e-04
  2.8068969e+00   2.3344455e-04
 -8.8528115e-03   1.4302462e-03
 -1.3736872e-02   8.1266987e-04
 -1.9329203e-02   4.4149742e-03
 -9.2375910e-01   3.9251245e-04
  2.0864876e-03   1.3088576e-03
  2.8212222e-03   4.0147931e-04
 -9.0876192e-01   2.3566931e-04
  8.9991838e-03   3.7139011e-04
  3.1396010e+00   4.9997150e-05
 -7.0152490e-04   1.3272059e-03
 -3.1979641e-01   8.1202376e-04
 -1.7223760e+00   4.6015714e-04
 -4.2563620e+00   3.4002576e-04
 -6.3743338e-02   5.0972513e-04
  3.3780490e-03   1.3616381e-04
 -5.8110142e-01   2.4401314e-05
 -1.4252267e-02   1.3872079e-03
 -1.4611586e+00   1.8210932e-04
 -1.1804268e-02   5.8283331e-04
 -2.3891676e-02   4.9879163e-04
 -1.6607127e+00   4.3723502e-04
 -5.5657383e-03   3.5386581e-03
 -3.5455701e-01   4.5689958e-04
 -1.7883032e-04   2.7181141e-04
 -2.2027625e-01   2.6710751e-04
  1.1507606e-02   3.9466794e-04
  5.3730626e+00   7.4149226e-04
 -1.8442937e-03   1.3719039e-03
 -7.6576611e-03   9.7896229e-04
 -4.1161729e-03   5.0263590e-04
 -2.0683596e+00   1.7551289e-05
 -2.1351233e+00   1.6127511e-05
  1.7073386e+00   2.6221587e-05
 -2.0574832e-01   1.4783040e-05
 -1.6105058e+00   2.7194043e-05
 -2.1809385e+00   1.2318612e-05
  8.3925676e-01   1.1499233e-05
  2.1825787e-01   2.0993262e-05
  1.9287271e+00   1.4057359e-06
  3.2956831e+00   1.4513605e-05
 -2.1358589e-02   4.4792800e-05
 -1.6738008e-01   3.9187049e-05
 -1.1707064e+00   4.8429401e-06
 -7.0107594e-02   4.5161418e-05
  9.3332928e-01   2.2685657e-05
  1.5398511e+00   1.3880015e-04
  1.8223597e+00   3.8421178e-05
  4.2021668e-01   5.7366080e-05
  2.0108974e+00   3.2716419e-04
  9.9724901e-01   1.9423303e-05
  1.9237931e+00   1.6963590e-04
  1.3354667e+00   1.7480442e-06
  2.7080791e+00   7.7347155e-05
 -4.3134955e-01   1.5784304e-06
  3.5486324e+00   1.7087137e-04
  1.3096447e+00   1.5348353e-04
 -3.0654660e-01   1.7486248e-04
  1.5542263e+00   6.1435756e-05
 -1.7150522e+00   3.1216467e-05
 -1.2028810e-01   6.1176265e-06
  5.3343081e+00   1.2216206e-04
 -4.9331659e-01   3.7163798e-06
 -4.6187010e-01   4.0876371e-06
  3.1849453e+00   1.7367409e-05
 -1.7481314e+00   5.8612364e-05
  1.5841854e+00   1.5314608e-05
  4.8028369e+00   4.7200967e-05
 -6.8732396e-02   2.3582561e-05
  7.3916447e-01   2.9062978e-05
 -1.4574841e+00   7.8757184e-06
 -2.9766819e+00   6.9727357e-05
 -1.3112578e+00   1.2395168e-05
 -6.7349809e-01   3.2973025e-05
  3.8178781e-01   4.9659091e-05
  2.8034134e+00   1.1797013e-04
 -4.7428629e-01   3.8729270e-04
 -6.1082168e+00   1.9885659e-04
 -3.9070354e+00   2.6166046e-04
  1.2392000e+00   1.1631014e-05
  5.5791802e+00   3.8915177e-04
 -8.9924216e-01   8.0830741e-06
  1.1547382e+00   1.1077840e-04
  5.4116712e+00   1.9054620e-04
 -1.8795832e+00   7.4050156e-04
 -3.2436168e+00   3.0656231e-06
 -9.8559332e+00   9.5318457e-05
 -6.3283954e+00   2.9321056e-04
 -2.1096395e-02   1.0170961e-03
  7.8825817e-02   1.2156599e-03
  4.5837250e+00   9.7876810e-04
  3.6174748e+00   3.6478010e-05
  2.4742931e-01   1.9502420e-04
  1.8325362e-02   8.8878913e-04
  2.6798265e-03   9.1325690e-04
 -2.8864937e-04   1.3014886e-03
  1.9387914e-03   4.1916766e-04
  1.2103128e-02   2.9421540e-04
 -6.6419737e-04   9.7245764e-04
 -4.8138625e-03   1.7142830e-03
  3.4036245e-03   5.0033914e-04
  1.8406454e-02   1.4323181e-03
  1.6070799e-03   7.8952301e-04
 -4.8885141e-03   3.0005098e-04
  4.5439382e-03   8.4746093e-04
  4.9769221e-04   8.6835993e-04
  1.4540765e-02   1.2958123e-03
 -7.4956114e-03   5.5543362e-04
 -1.5022202e+00   5.0917628e-05
 -8.7230029e-03   1.5130028e-03
  8.1539424e-03   1.1353279e-03
 -4.6412335e-03   9.1129402e-04
  2.9104573e-03   4.9750041e-04
 -2.5997026e-02   2.5327117e-05
 -4.5954888e-03   7.8640413e-04
  8.2623062e-04   5.0425873e-04
  9.0808606e-01   8.1755093e-04
 -5.4060549e-01   3.3549939e-05
  1.8109636e+00   1.5373390e-04
  2.2297308e-03   7.7659398e-04
  4.4720862e-03   9.5141717e-05
 -3.9508045e-03   6.8729103e-04
 -1.0184819e-02   4.1642200e-04
 -2.0834627e-03   1.0176132e-03
  1.4257316e-02   1.4745232e-03
 -1.1211214e-02   7.0964510e-05
  1.0821869e+00   2.7947940e-04
 -1.5336587e-02   4.9334281e-04
 -4.2748670e-03   9.9052303e-04
  6.6616549e-04   5.2525179e-04
 -3.4565055e-05   3.6234356e-04
  1.4365920e-02   1.1789449e-03
  1.2616313e-02   9.5976063e-04
  2.5042745e-03   6.1878114e-04
 -9.7539965e-03   1.4686917e-03
  1.9028326e+00   9.7366603e-05
 -5.6558084e-03   1.6869812e-03
  7.2149592e-03   8.2493195e-04
  1.5142654e-03   2.0020673e-04
 -2.8003855e-03   4.0263249e-04
 -5.3110695e-03   5.9597357e-04
 -3.1990916e-03   5.1150547e-04
 -7.9946220e-03   4.6399701e-04
 -3.9485940e-03   1.9159699e-04
 -6.1398227e-04   1.2660882e-04
 -2.6728655e-03   5.9731602e-04
  1.7306851e-02   9.1888243e-04
  1.3191508e-03   7.8506077e-05
 -7.2074383e-03   3.8757297e-04
 -1.7246118e-02   6.8896078e-04
  1.8725991e-02   1.7789220e-04
 -2.7545118e-03   1.4133033e-03
  4.2810431e-03   1.4662986e-03
 -3.6370426e-03   2.4504843e-04
 -6.9221522e-04   2.6686536e-04
  6.6333362e-03   4.5962530e-04
  3.0934697e-03   1.4924357e-03
 -9.7620515e-03   2.8584545e-04
 -4.9410990e-01   1.9077203e-03
  1.1205351e-02   6.4150820e-04
 -5.2423502e-04   2.2127715e-04
  7.1232524e-03   1.4965449e-03
  2.1868359e-02   1.2637738e-03
 -1.0064947e-03   1.4846699e-04
  2.6426231e-02   3.9686060e-05
 -1.0229213e-02   4.1280148e-04
 -1.1662219e-02   8.3908153e-04
  4.8601809e-03   2.3998155e-03
  1.3421202e-02   8.5537479e-04
  2.8849781e-02   1.1281590e-03
  6.2309410e-03   6.8356819e-04
 -9.9722864e-03   2.0901437e-04
  9.1217225e-03   5.6921568e-04
 -2.9001629e-03   3.5709617e-04
 -1.0273273e-02   2.3473316e-04
  2.0663575e-03   7.9789123e-04
 -8.1799999e-03   5.0435343e-04
 -1.5834072e-03   5.1334803e-04
 -1.5287925e-03   2.2255552e-04
 -9.2944158e-03   9.3635434e-05
 -1.6461220e-02   4.4591667e-04
 -1.3471123e-02   3.3686648e-04
  1.1602377e-03   1.2600351e-03
 -1.1349562e-02   1.6975150e-04
 -3.3370273e-03   1.1117479e-03
 -6.7689521e-03   5.1712425e-04
 -3.6817025e-03   1.1841016e-04
  1.4191958e-02   4.1379881e-04
  1.2446162e-02   6.4839527e-04
  6.3142758e-03   7.4485072e-04
 -6.4916438e-03   3.9205721e-04
  8.6004334e-03   1.3867383e-03
  2.3938131e-03   1.8820858e-04
 -8.8173032e-01   4.1850872e-04
  2.0892663e+00   9.5099807e-05
  4.4345003e-01   6.7151146e-04
  4.5958264e-03   9.6052012e-05
  2.8577551e-02   6.2066631e-04
 -1.0487024e+00   9.4989903e-04
  2.7005297e-01   3.3118343e-04
  3.3066168e-01   7.0292619e-05
 -6.0906876e-03   1.1733763e-03
 -6.5194026e-02   5.4920360e-04
  9.3621594e-01   1.2063870e-03
 -2.0275021e-03   2.7673424e-04
 -4.8268856e-03   4.9734034e-04
 -2.3938177e+00   2.1319509e-04
  1.1357975e+00   7.6173543e-05
 -1.9628678e-01   1.2252705e-04
  1.5206691e-02   8.2684978e-04
 -2.7360444e+00   2.4081639e-03
 -1.1282163e-03   2.2110343e-04
 -1.1422493e+00   6.2759110e-04
  7.4173638e-04   6.9164991e-04
 -2.3897303e-02   5.0958770e-04
 -1.8441579e-01   2.5644475e-03
  2.0044175e-01   1.2205387e-04
 -3.3090836e-03   6.9798948e-04
 -8.8194531e-01   2.1324426e-04
  2.2571401e-03   5.4381660e-04
 -1.2743636e+00   1.0103072e-03
  7.1506933e-03   6.1913778e-04
  2.9162518e-03   1.3196947e-04
 -3.7521788e-01   1.6812657e-04
  1.9047180e+00   2.3186458e-03
 -2.3553758e+00   3.3843758e-06
  2.7434725e-01   2.0879766e-04
  2.8114283e-02   1.6466739e-03
  5.7525152e-01   4.6009166e-04
  1.4372231e-02   6.0132990e-04
 -2.2349617e-02   4.9615256e-04
  5.4825386e-03   7.7716628e-04
  1.1656185e-01   6.9811119e-04
 -3.4011830e-02   3.8371931e-04
  7.4111646e-01   3.3068637e-04
  1.0325610e-02   5.8074930e-04
 -2.8209533e-03   9.1900257e-04
 -9.2853498e-01   7.7182095e-04
  1.6361626e-02   4.8800136e-04
 -2.7654201e-03   4.9516885e-04
  4.1743401e-02   2.0941528e-03
 -2.2247848e-03   2.0886357e-03
 -9.3668461e-04   5.9392367e-04
  2.0559542e+00   2.3760255e-04
  1.2944362e-02   3.3951789e-04
 -1.6138654e-02   8.8642095e-04
 -4.8988052e-03   2.6920260e-04
 -1.5511802e+00   7.5837794e-05
  9.6369915e-02   3.1201762e-05
 -1.9654140e-02   4.4868055e-05
 -7.8901345e-01   5.0125859e-04
  4.3014443e-01   5.4699695e-04
  6.1822873e-01   1.2737298e-05
  3.6216569e-01   8.5302192e-05
 -8.2968093e-02   5.2571204e-06
 -2.3190923e+00   1.0953424e-04
 -1.0693794e-02   4.7758056e-04
  3.5200229e-01   1.9508447e-04
 -5.7517933e-03   1.7165512e-04
 -3.0427907e+00   1.2863016e-04
  1.4615782e-04   1.6695729e-05
  5.8329296e-01   5.2543316e-04
  2.0288795e-02   1.0891539e-03
 -1.0040206e+00   1.6326642e-04
  2.7104941e-01   1.3583299e-04
  8.9764111e-03   3.1768827e-04
 -2.1995928e-02   6.4211048e-04
  1.2883022e-01   2.6921558e-03
 -3.1064752e-01   4.0289311e-04
  1.1577817e-02   7.7525544e-04
  7.1031782e-03   1.0144821e-04
  1.6384326e+00   2.7456577e-04
  2.3477431e-01   1.2265901e-03
 -9.2718706e-02   5.0955365e-04
 -9.4171027e-03   6.6902966e-04
 -1.9314293e-02   1.3968714e-04
 -1.4293646e-02   7.3310937e-04
 -4.9089126e-02   5.9634447e-04
 -1.9677055e-01   1.5037387e-04
  6.4364552e-01   4.2744568e-06
  5.7669166e-02   6.8648078e-05
 -1.1191835e+00   1.6330558e-04
 -4.1864147e+00   1.0878583e-05
 -3.4631134e-04   5.3479860e-04
  5.1535010e-01   6.7634719e-05
  2.5604942e-01   3.5868605e-04
 -8.3496857e-01   2.4989372e-04
 -3.1214514e-01   1.5277164e-04
  5.9779119e-01   8.8769972e-05
 -2.4716818e+00   1.0343724e-05
 -3.7255855e-03   7.1123352e-05
 -6.2585729e-01   5.4156757e-04
 -1.2275759e-03   1.1466833e-04
 -1.5067245e-02   5.3280784e-04
 -1.7348904e-04   8.6068088e-04
 -3.3345330e-04   1.3451432e-03
  9.2715229e-04   4.3606065e-04
  7.8047305e-01   8.0749473e-05
 -2.9118792e-03   1.7824618e-04
  9.0663880e-03   2.0053554e-03
  1.7703063e-03   3.5518280e-04
  6.3055116e-01   4.7997470e-05
 -6.7779577e-01   3.4750436e-05
 -1.0592636e-01   2.8264051e-04
 -2.3044150e+00   1.0630562e-04
  2.7686062e+00   9.2991257e-05
 -2.7899077e+00   1.3797308e-04
  9.9726558e-01   2.0663814e-05
 -2.0974588e-02   1.3327973e-04
 -8.4534353e-01   3.2776030e-04
  6.1028842e-03   1.3913559e-03
  1.1644648e+00   8.2094170e-04
 -6.8071619e-02   6.1432780e-05
 -6.7885888e-01   1.2215144e-03
 -2.4946952e-01   1.8176739e-04
  5.5247173e-03   2.9125094e-04
  1.9044271e-01   1.3284009e-05
 -1.9456391e-01   1.0686427e-03
  6.9447964e-02   2.2731115e-04
 -6.5507391e-03   6.0811650e-04
  6.7860872e-01   1.1070334e-04
  4.2712680e-01   2.7903586e-04
  3.4056969e+00   1.0141033e-04
  3.3521060e-02   2.9802564e-04
  1.8112305e+00   1.4582367e-05
  4.4073248e-03   9.1422274e-04
  8.6666852e-01   3.2637731e-04
 -2.3700519e+00   5.4266280e-04
  2.3226874e-01   4.5034580e-04
  5.7280894e-02   4.7828420e-04
 -1.0181259e+00   7.0305070e-04
  1.2787001e+00   3.3562590e-04
 -1.1254868e-01   3.8966094e-04
  8.7993610e-01   7.2376092e-06
  3.9415115e-01   6.0591574e-05
  9.2201956e-02   8.7414734e-04
  3.1244996e-01   3.1164978e-05
 -4.4798274e+00   2.0116458e-04
  3.8339779e-02   3.3338001e-04
  2.2930391e+00   6.3829584e-04
 -1.9974031e-02   2.2224951e-06
 -1.6528589e-01   7.2222545e-05
 -4.2867848e-01   2.4756773e-05
 -1.0885608e-02   1.5283206e-04
 -7.6552711e-02   5.1322096e-04
 -1.2618864e-01   2.5246694e-04
  5.3926912e-04   1.8288697e-04
 -4.9095862e-03   3.1261033e-04
 -2.3288201e-03   1.5101546e-03
 -3.4812912e-03   2.6153217e-04
  9.0386830e-03   2.8256618e-04
 -7.2872025e-01   1.1368218e-04
 -6.5164007e-03   1.9174470e-03
  2.1221526e-02   4.6934903e-04
  1.0490246e-02   1.7922806e-03
  7.0674336e-01   8.4567910e-06
  2.5982885e+00   7.1801119e-06
 -3.2021048e+00   3.9029030e-05
  5.6663936e-01   1.0673021e-04
  6.1310778e+00   1.7851579e-04
  1.2877651e-01   5.8815451e-05
 -1.9858193e+00   1.7299837e-05
 -2.4019144e+00   2.8178458e-05
 -9.3684435e-02   5.7687688e-05
 -4.1063514e+00   1.1049117e-04
 -1.1018683e+00   8.4219559e-04
  1.6734452e+00   1.1058791e-04
 -3.6641040e+00   1.0681914e-04
 -7.6048449e-02   9.7886375e-05
  3.5523242e-01   5.0150175e-05
  5.7586044e-02   9.9209487e-04
  3.0004776e+00   1.3318438e-04
 -2.9709163e-01   5.6528032e-05
  4.6886196e+00   1.7601259e-04
  2.6823962e+00   1.5333496e-04
  1.5897787e+00   1.5688016e-05
 -4.0821023e+00   8.3493425e-05
 -2.5851951e+00   8.2302526e-05
 -2.3537819e+00   4.8856336e-06
 -1.3637067e+00   1.2916775e-05
  1.8503033e+00   9.3444090e-05
 -2.8833468e+00   2.0088370e-05
  7.8096807e-01   1.3760899e-04
  1.6850543e+00   2.2244960e-04
 -6.0589271e+00   2.3967017e-04
 -2.8233886e-01   1.5299450e-04
 -4.3722519e-01   1.0038055e-04
  3.0837687e-02   3.9723736e-06
 -4.6328945e+00   1.3083421e-05
  2.3850904e+00   2.1527789e-05
  8.9588672e-01   4.9085629e-05
 -1.1270219e+00   4.4018401e-05
  2.5195317e+00   8.5793617e-05
  9.2366439e-01   8.7193097e-05
 -1.3362024e+00   3.4295845e-05
  5.1486964e+00   2.0685029e-04
  1.7111658e+00   2.5591979e-05
  6.8781987e-02   1.9245605e-04
 -4.7268591e+00   4.9430419e-05
 -1.5672743e+00   2.0573777e-04
  5.8389450e-03   3.1841042e-05
 -1.1134611e+00   8.7809109e-05
 -2.4000955e+00   5.1810296e-04
  2.2010500e+00   2.6543919e-04
  3.2271549e-01   1.0754270e-03
 -5.0514512e+00   1.6319959e-06
  2.1956918e+00   9.9874705e-05
 -1.8490765e+00   2.0065791e-05
 -1.7014244e+00   1.3848227e-04
 -1.3708005e+00   1.7847660e-05
 -4.3197978e-01   9.6012936e-06
 -5.5035606e-02   5.6678942e-05
 -6.4396769e-01   3.3823954e-04
 -6.1822104e-01   2.3018654e-05
  4.4818810e-01   2.1202253e-04
 -4.7370327e-01   3.9678493e-05
 -6.5703833e-01   1.7403970e-04
  3.2192492e-01   1.3037019e-04
  1.5314791e-02   3.4278492e-04
  5.3366169e-02   7.5944845e-04
 -3.7165341e-04   5.1385857e-04
 -1.3597949e-01   8.8835281e-04
 -4.3257532e-01   6.5770862e-04
  1.3563133e+00   2.3199779e-04
 -8.2965165e-02   4.7290727e-04
 -2.3628072e-01   3.6432486e-04
 -1.1368589e+00   3.9365067e-04
  1.3304985e-01   7.4332778e-04
  2.3584161e+00   2.7215804e-04
  5.0115325e-03   4.5326186e-04
  7.3603529e-01   2.3700779e-04
  3.6473053e-03   5.3163728e-04
  3.9812160e+00   8.1040751e-05
  1.5429992e-02   5.7125970e-04
  6.4418197e-01   4.0362999e-04
  3.7732130e-01   1.2118946e-03
 -9.0257549e-01   1.8650138e-04
  4.7837007e-03   4.4459704e-04
 -2.0884967e-03   3.8612314e-04
 -3.6281230e+00   1.4672166e-04
 -4.0256044e-01   1.9052740e-04
 -8.7967986e-01   8.5553165e-06
  2.3865210e-01   1.2794547e-04
 -4.4482771e-01   3.3072586e-04
  6.2064874e-01   1.4651325e-04
  1.2450424e+00   2.5286173e-04
  1.5334756e+00   5.9086725e-04
 -2.2785789e-03   6.1349674e-05
  8.9181289e-02   1.3991114e-04
 -2.6598758e-01   1.9011741e-04
 -4.4199714e-01   4.2904405e-05
 -4.5007801e+00   4.9780670e-04
 -2.5736017e+00   4.1730056e-04
 -5.1233685e-01   1.3665229e-04
 -2.0953252e-03   3.4080313e-05
 -3.7953675e-02   9.9244215e-05
  5.7110620e-01   1.3440376e-03
 -1.9923828e-03   2.0093005e-04
 -1.4744568e-02   8.7129785e-04
 -3.7783042e-01   5.0664803e-05
 -1.3262241e-02   1.6377580e-03
  3.1565840e-03   6.1555405e-04
  7.5370260e-02   4.2192958e-04
 -7.3583061e-01   2.4398543e-04
  1.8078161e+00   4.0385523e-05
  7.9677719e-01   1.1671556e-05
  6.6544604e-01   2.3042338e-04
 -9.1481465e-01   3.8981249e-04
  2.7780142e+00   2.8757812e-04
 -8.8183397e-01   1.8975438e-04
 -1.6279558e+00   1.7487995e-05
  6.9620326e-02   2.0624363e-04
  9.6709117e-02   3.0517133e-04
 -8.5606563e-01   3.3218022e-03
  2.4070768e+00   1.0988426e-04
 -2.0585911e-02   1.0093467e-03
  1.2861016e+00   1.2550925e-04
 -2.3149633e+00   6.7028927e-04
  3.1630954e-01   1.0338594e-03
  2.1431628e-01   5.6594668e-04
  7.0994997e-01   2.5364471e-04
 -1.3187349e+00   1.3131752e-03
 -1.1475152e+00   5.3200510e-04
 -7.8215431e-03   2.8300119e-04
 -5.3657274e+00   9.3142437e-05
  4.6462145e-01   4.1326135e-04
  2.5152061e+00   8.6040593e-05
 -2.3946166e-03   4.0506414e-04
 -3.8185425e-02   3.3632721e-04
  7.0490269e-03   6.1042207e-05
  7.8054827e-01   6.4910908e-04
 -4.5018315e-02   1.5264426e-04
  5.8257896e-01   1.4868970e-03
 -6.1086345e-01   1.0656014e-03
 -6.8479807e-05   5.2616280e-04
  1.1815416e+00   6.0748494e-06
 -1.6108668e+00   5.3233820e-05
  1.1627290e-03   1.9456544e-04
 -2.4513018e-01   6.7708531e-04
 -4.9931109e-03   1.0883491e-03
  1.1762857e-01   2.0325926e-04
 -5.1895221e-04   5.2727998e-04
  5.0563788e-01   3.5989004e-05
  4.1475528e-01   4.0636974e-04
  4.3115988e-02   2.3024695e-05
  2.1840995e-02   4.2579533e-04
  5.7557109e-03   1.8590534e-04
 -1.2558718e-01   6.4913125e-04
 -1.0663549e-05   8.3611027e-04
 -5.8040954e-03   1.0727014e-04
 -1.5093552e-01   2.6856475e-03
  6.7676669e-03   2.9863729e-04
  3.5866026e-02   2.4347597e-04
 -6.1417170e+00   1.0062168e-04
  7.9679582e-03   9.7834447e-04
 -7.1029123e-03   1.3194174e-03
  6.2214830e-03   1.8057934e-03
  9.4894874e-01   5.6939749e-05
  1.5948279e-02   6.4044318e-05
  7.4801034e-01   1.2452087e-04
 -3.6975250e+00   1.3253702e-04
 -6.4280254e-01   6.6624832e-04
 -1.0454327e+00   5.0525821e-04
  2.7860608e+00   2.0373949e-04
  4.2974625e+00   1.1914116e-05
 -3.5955258e-02   1.1465506e-04
  1.3375278e+00   7.9214013e-05
  1.7159424e+00   2.5677828e-05
 -3.9889017e-01   3.5485896e-04
  5.9935331e-01   2.2515622e-05
 -1.3054923e+00   1.1392274e-04
 -1.6535884e-01   1.1935074e-04
 -3.5510371e+00   3.6300000e-04
 -4.6538253e+00   3.6535083e-04
 -9.6015811e-02   2.8515595e-05
  1.3125386e+00   8.8113389e-05
 -4.0565739e+00   1.2874279e-04
 -1.4371680e+00   4.2479861e-04
  3.1852958e-01   2.6505056e-04
  1.6278987e-01   8.1989326e-04
  7.0698314e+00   5.9030241e-05
 -2.3795013e+00   9.0743456e-04
  4.5346253e-02   4.6250728e-04
  1.1556623e+00   6.7719416e-04
  8.7963551e-01   4.5766128e-04
 -5.8135653e-01   1.3329045e-05
  6.8054438e-01   1.6487162e-03
  2.1511886e+00   4.5574325e-04
  1.6224335e+00   2.9223558e-04
 -8.4886327e-02   7.2469729e-06
  5.5443130e+00   1.2494769e-04
  5.5983758e-01   1.5708981e-03
 -2.5398932e+00   1.6992135e-04
  2.3387127e+00   1.2343483e-04
 -2.1425886e+00   4.5050725e-05
  7.5720684e-03   7.5643050e-04
  6.6894236e+00   4.3554752e-07
 -1.0466083e+00   1.5371547e-04
  1.4685547e+00   3.1688010e-05
 -5.1571493e+00   5.5552030e-04
  6.6491966e+00   2.6914751e-04
 -7.5688057e-02   2.4720121e-04
  4.6626458e-01   9.0640993e-04
  7.2970331e-02   1.2355034e-04
 -2.9663679e-03   7.5212232e-04
  5.8284491e-02   7.4327964e-04
 -1.1474033e-01   1.1994186e-02
  4.6784830e+00   2.1800955e-04
 -3.3881372e-01   2.2712673e-05
 -2.0531222e-02   1.1246270e-03
  3.5506664e-03   2.4507099e-04
  3.4916141e+00   7.7266122e-05
 -6.3831887e+00   7.3350988e-05
 -2.9313090e+00   2.6991652e-04
  2.8162265e+00   3.5624366e-04
  9.8975521e-01   1.0611623e-03
  1.5781299e+00   1.0286612e-04
  4.4901657e+00   5.3379184e-04
 -2.6742833e+00   1.2826594e-04
  3.7776251e+00   4.6886309e-04
 -9.2930607e-02   1.4948043e-03
  1.8196122e-01   3.1539431e-04
 -7.0177120e-01   2.6483758e-04
  6.1969548e-01   1.9278546e-04
  1.8738880e+00   8.2855235e-04
 -1.0393689e-01   1.4934189e-05
  1.5440550e-02   4.9426977e-04
  1.3243005e+00   1.4185195e-04
  4.0205475e-02   8.8884035e-04
  3.0045634e-02   1.6291236e-04
  2.7317547e-03   2.8595404e-04
 -1.4065130e-04   2.1004502e-03
 -1.0365292e+00   1.3428836e-04
  2.6576015e-01   4.3326052e-04
 -6.2172761e+00   1.6434593e-05
  4.5035800e-01   3.8100171e-04
  1.7015106e-03   2.1747981e-04
 -3.1890429e-04   1.5117964e-03
 -4.6457949e-01   7.2129763e-04
 -8.9746010e-01   4.9456290e-04
  1.0875596e+00   8.4976884e-05
  5.0050106e-02   1.1086302e-04
  4.4405379e+00   1.6568227e-04
 -5.7228279e-01   1.3332107e-05
  6.7008728e-01   8.7965549e-05
 -1.0310313e-03   4.1902417e-04
  8.0499411e-01   1.1542559e-04
  5.1761837e+00   3.4794144e-04
  9.5779085e-01   4.7721715e-05
  4.2854391e-02   1.0271154e-03
 -1.5016210e+00   3.3146187e-04
 -1.7034822e+00   1.9487768e-04
 -1.9462330e+00   5.8410136e-05
  1.0839453e-03   4.2420459e-05
  1.3814993e+00   1.5698487e-04
 -6.9955915e-01   6.2937550e-05
  2.6812693e-03   1.0221908e-03
  3.3710622e-03   2.9931185e-04
 -3.9934283e-03   1.0931105e-03
 -1.0251519e-02   1.4095791e-03
  9.9792434e-03   1.8406482e-04
 -4.2074599e+00   3.1476782e-04
 -9.8353229e-04   1.2592976e-04
  7.5958450e-03   6.4211874e-04
  1.6627185e-02   5.9777572e-05
 -1.0864547e-02   3.8757172e-04
 -6.1169342e-04   9.3048252e-04
  1.9444422e-03   1.5251671e-03
  5.4518445e-03   4.1132543e-04
  3.9382717e-03   4.3193070e-04
 -1.4607636e-02   1.0722702e-03
  6.4078439e-03   8.0253195e-04
  1.2050744e-03   1.3655805e-03
 -3.4414323e-03   1.1333798e-04
 -4.9355151e-03   2.6706632e-04
  3.8866515e-04   5.3690565e-05
 -3.4747110e-03   5.6783046e-04
 -7.5852852e-03   1.4784612e-03
 -2.6100094e-03   3.3599257e-03
 -1.1211524e-03   8.4906165e-04
  1.7465137e-02   1.2339932e-03
 -9.9848593e-03   1.0846808e-03
 -5.0325389e-04   1.4670893e-03
 -3.7954357e-01   5.1959621e-04