
***************************************************************
*                 Welcome to use GPUMD                        *
*    (Graphics Processing Units Molecular Dynamics)           *
*                     Version 3.8                             *
*              This is the nep executable                     *
***************************************************************


---------------------------------------------------------------
GPU information:
---------------------------------------------------------------

number of GPUs = 1
Device id:                   0
    Device name:             NVIDIA A100-PCIE-40GB
    Compute capability:      8.0
    Amount of global memory: 39.5861 GB
    Number of SMs:           108

---------------------------------------------------------------
Started running nep.
---------------------------------------------------------------


---------------------------------------------------------------
Started reading nep.in.
---------------------------------------------------------------

Input or default parameters:
    (default) model_type = potential.
    (default) calculation mode = train.
    (input)   use NEP version 4.
    (input)   number of atom types = 3.
        (default) type 0 (B with Z = 5) has force weight of 1.
        (default) type 1 (C with Z = 6) has force weight of 1.
        (default) type 2 (N with Z = 7) has force weight of 1.
    (default) will not add the ZBL potential.
    (input)   radial cutoff = 8 A.
    (input)   angular cutoff = 4 A.
    (input)   n_max_radial = 8.
    (input)   n_max_angular = 8.
    (input)   basis_size_radial = 12.
    (input)   basis_size_angular = 12.
    (input)   l_max_3body = 4.
    (input)   l_max_4body = 2.
    (input)   l_max_5body = 0.
    (input)   number of neurons = 50.
    (default) lambda_1 = -1.
    (default) lambda_2 = -1.
    (input)   lambda_e = 1.
    (input)   lambda_f = 1.
    (input)   lambda_v = 0.1.
    (default) lambda_shear = 1.
    (default) force_delta = 0.
    (input)   batch size = 10000.
    (input)   population size = 50.
    (input)   maximum number of generations = 200000.
Some calculated parameters:
    number of radial descriptor components = 9.
    number of angular descriptor components = 45.
    total number of descriptor components = 54.
    NN architecture = 54-50-1.
    number of NN parameters to be optimized = 8401.
    number of descriptor parameters to be optimized = 2106.
    total number of parameters to be optimized = 10507.

---------------------------------------------------------------
Finished reading nep.in.
---------------------------------------------------------------


---------------------------------------------------------------
Started reading train.xyz.
---------------------------------------------------------------

Number of configurations = 4099.
Number of devices = 1
Number of batches = 1
Hello, I changed the batch_size from 10000 to 4099.

Batch 0:
Number of configurations = 4099.

---------------------------------------------------------------
Constructing train_set in device  0.
Total number of atoms = 229760.
Number of atoms in the largest configuration = 96.
Number of configurations having virial = 4099.
Radial descriptor with a cutoff of 8 A:
    Minimum number of neighbors for one atom = 70.
    Maximum number of neighbors for one atom = 414.
Angular descriptor with a cutoff of 4 A:
    Minimum number of neighbors for one atom = 14.
    Maximum number of neighbors for one atom = 46.
---------------------------------------------------------------


---------------------------------------------------------------
Time used for initialization = 0.760000 s.
---------------------------------------------------------------


---------------------------------------------------------------
Started training.
---------------------------------------------------------------

Step    Total-Loss L1Reg-Loss L2Reg-Loss RMSE-E-Train RMSE-F-Train RMSE-V-Train RMSE-E-Test  RMSE-F-Test  RMSE-V-Test  
100     0.13462    0.02670    0.04999    0.00081      0.05286      0.01248      0.00000      0.00000      0.00000      
200     0.13461    0.02669    0.04998    0.00081      0.05286      0.01245      0.00000      0.00000      0.00000      
300     0.13460    0.02669    0.04998    0.00081      0.05286      0.01242      0.00000      0.00000      0.00000      
400     0.13460    0.02669    0.04998    0.00081      0.05286      0.01243      0.00000      0.00000      0.00000      
500     0.13459    0.02669    0.04998    0.00081      0.05286      0.01243      0.00000      0.00000      0.00000      
600     0.13458    0.02669    0.04997    0.00081      0.05285      0.01243      0.00000      0.00000      0.00000      
700     0.13458    0.02668    0.04997    0.00081      0.05285      0.01245      0.00000      0.00000      0.00000      
800     0.13457    0.02668    0.04997    0.00081      0.05285      0.01246      0.00000      0.00000      0.00000      
900     0.13456    0.02668    0.04997    0.00081      0.05285      0.01245      0.00000      0.00000      0.00000      
1000    0.13456    0.02668    0.04996    0.00081      0.05285      0.01245      0.00000      0.00000      0.00000      
1100    0.13455    0.02667    0.04996    0.00081      0.05285      0.01246      0.00000      0.00000      0.00000      
1200    0.13455    0.02667    0.04996    0.00080      0.05285      0.01247      0.00000      0.00000      0.00000      
1300    0.13454    0.02667    0.04995    0.00081      0.05285      0.01247      0.00000      0.00000      0.00000      
1400    0.13453    0.02667    0.04995    0.00081      0.05284      0.01246      0.00000      0.00000      0.00000      
1500    0.13453    0.02666    0.04995    0.00081      0.05284      0.01247      0.00000      0.00000      0.00000      
1600    0.13452    0.02666    0.04995    0.00081      0.05284      0.01247      0.00000      0.00000      0.00000      
1700    0.13451    0.02666    0.04994    0.00081      0.05283      0.01249      0.00000      0.00000      0.00000      
1800    0.13451    0.02666    0.04994    0.00080      0.05283      0.01246      0.00000      0.00000      0.00000      
1900    0.13450    0.02666    0.04994    0.00081      0.05283      0.01250      0.00000      0.00000      0.00000      
2000    0.13449    0.02666    0.04993    0.00080      0.05283      0.01249      0.00000      0.00000      0.00000      
2100    0.13449    0.02666    0.04993    0.00080      0.05283      0.01247      0.00000      0.00000      0.00000      
2200    0.13448    0.02665    0.04993    0.00081      0.05283      0.01245      0.00000      0.00000      0.00000      
2300    0.13447    0.02665    0.04993    0.00081      0.05283      0.01246      0.00000      0.00000      0.00000      
2400    0.13447    0.02665    0.04993    0.00081      0.05283      0.01246      0.00000      0.00000      0.00000      
2500    0.13446    0.02665    0.04992    0.00080      0.05282      0.01246      0.00000      0.00000      0.00000      
2600    0.13446    0.02665    0.04992    0.00080      0.05282      0.01245      0.00000      0.00000      0.00000      
2700    0.13445    0.02665    0.04992    0.00080      0.05282      0.01243      0.00000      0.00000      0.00000      
2800    0.13445    0.02665    0.04991    0.00080      0.05282      0.01244      0.00000      0.00000      0.00000      
2900    0.13444    0.02665    0.04991    0.00081      0.05282      0.01245      0.00000      0.00000      0.00000      
3000    0.13444    0.02665    0.04991    0.00080      0.05282      0.01246      0.00000      0.00000      0.00000      
3100    0.13443    0.02664    0.04991    0.00080      0.05281      0.01246      0.00000      0.00000      0.00000      
3200    0.13442    0.02664    0.04990    0.00081      0.05281      0.01243      0.00000      0.00000      0.00000      
3300    0.13441    0.02664    0.04990    0.00080      0.05281      0.01245      0.00000      0.00000      0.00000      
3400    0.13441    0.02663    0.04990    0.00080      0.05281      0.01245      0.00000      0.00000      0.00000      
3500    0.13440    0.02663    0.04989    0.00080      0.05281      0.01248      0.00000      0.00000      0.00000      
3600    0.13439    0.02663    0.04989    0.00080      0.05281      0.01247      0.00000      0.00000      0.00000      
3700    0.13439    0.02663    0.04989    0.00080      0.05280      0.01245      0.00000      0.00000      0.00000      
3800    0.13438    0.02663    0.04989    0.00080      0.05280      0.01245      0.00000      0.00000      0.00000      
3900    0.13438    0.02662    0.04988    0.00081      0.05280      0.01243      0.00000      0.00000      0.00000      
4000    0.13437    0.02662    0.04988    0.00080      0.05280      0.01247      0.00000      0.00000      0.00000      
4100    0.13437    0.02662    0.04988    0.00080      0.05280      0.01246      0.00000      0.00000      0.00000      
4200    0.13436    0.02661    0.04988    0.00081      0.05280      0.01246      0.00000      0.00000      0.00000      
4300    0.13435    0.02661    0.04987    0.00081      0.05280      0.01245      0.00000      0.00000      0.00000      
4400    0.13434    0.02661    0.04987    0.00081      0.05280      0.01243      0.00000      0.00000      0.00000      
4500    0.13434    0.02661    0.04987    0.00081      0.05279      0.01246      0.00000      0.00000      0.00000      
4600    0.13433    0.02661    0.04987    0.00081      0.05279      0.01243      0.00000      0.00000      0.00000      
4700    0.13433    0.02660    0.04986    0.00080      0.05279      0.01246      0.00000      0.00000      0.00000      
4800    0.13432    0.02660    0.04986    0.00081      0.05279      0.01245      0.00000      0.00000      0.00000      
4900    0.13431    0.02660    0.04986    0.00081      0.05279      0.01245      0.00000      0.00000      0.00000      
5000    0.13431    0.02660    0.04986    0.00081      0.05279      0.01243      0.00000      0.00000      0.00000      
5100    0.13430    0.02660    0.04985    0.00081      0.05279      0.01243      0.00000      0.00000      0.00000      
5200    0.13429    0.02659    0.04985    0.00081      0.05278      0.01245      0.00000      0.00000      0.00000      
5300    0.13428    0.02659    0.04985    0.00081      0.05278      0.01247      0.00000      0.00000      0.00000      
5400    0.13428    0.02659    0.04985    0.00081      0.05278      0.01246      0.00000      0.00000      0.00000      
5500    0.13427    0.02659    0.04984    0.00080      0.05278      0.01249      0.00000      0.00000      0.00000      
5600    0.13427    0.02659    0.04984    0.00080      0.05278      0.01248      0.00000      0.00000      0.00000      
5700    0.13426    0.02658    0.04984    0.00081      0.05278      0.01248      0.00000      0.00000      0.00000      
5800    0.13425    0.02658    0.04983    0.00080      0.05278      0.01247      0.00000      0.00000      0.00000      
5900    0.13425    0.02658    0.04983    0.00081      0.05277      0.01247      0.00000      0.00000      0.00000      
6000    0.13424    0.02657    0.04983    0.00080      0.05277      0.01246      0.00000      0.00000      0.00000      
6100    0.13424    0.02657    0.04983    0.00081      0.05277      0.01243      0.00000      0.00000      0.00000      
6200    0.13423    0.02657    0.04983    0.00081      0.05277      0.01247      0.00000      0.00000      0.00000      
6300    0.13422    0.02657    0.04982    0.00081      0.05277      0.01245      0.00000      0.00000      0.00000      
6400    0.13422    0.02657    0.04982    0.00081      0.05277      0.01246      0.00000      0.00000      0.00000      
6500    0.13421    0.02656    0.04982    0.00081      0.05277      0.01244      0.00000      0.00000      0.00000      
6600    0.13420    0.02656    0.04981    0.00081      0.05277      0.01244      0.00000      0.00000      0.00000      
6700    0.13419    0.02656    0.04981    0.00081      0.05276      0.01244      0.00000      0.00000      0.00000      
6800    0.13419    0.02656    0.04981    0.00080      0.05276      0.01246      0.00000      0.00000      0.00000      
6900    0.13418    0.02655    0.04981    0.00081      0.05276      0.01245      0.00000      0.00000      0.00000      
7000    0.13417    0.02655    0.04980    0.00081      0.05276      0.01244      0.00000      0.00000      0.00000      
7100    0.13417    0.02655    0.04980    0.00080      0.05276      0.01243      0.00000      0.00000      0.00000      
7200    0.13416    0.02655    0.04980    0.00081      0.05275      0.01244      0.00000      0.00000      0.00000      
7300    0.13416    0.02655    0.04979    0.00081      0.05275      0.01246      0.00000      0.00000      0.00000      
7400    0.13415    0.02655    0.04979    0.00081      0.05275      0.01248      0.00000      0.00000      0.00000      
7500    0.13414    0.02654    0.04979    0.00081      0.05275      0.01245      0.00000      0.00000      0.00000      
7600    0.13414    0.02654    0.04979    0.00081      0.05275      0.01246      0.00000      0.00000      0.00000      
7700    0.13413    0.02654    0.04978    0.00081      0.05275      0.01246      0.00000      0.00000      0.00000      
7800    0.13412    0.02654    0.04978    0.00081      0.05274      0.01246      0.00000      0.00000      0.00000      
7900    0.13411    0.02653    0.04978    0.00081      0.05274      0.01243      0.00000      0.00000      0.00000      
8000    0.13411    0.02653    0.04977    0.00081      0.05274      0.01244      0.00000      0.00000      0.00000      
8100    0.13411    0.02653    0.04977    0.00081      0.05274      0.01244      0.00000      0.00000      0.00000      
8200    0.13410    0.02653    0.04977    0.00081      0.05274      0.01245      0.00000      0.00000      0.00000      
8300    0.13409    0.02653    0.04976    0.00080      0.05273      0.01246      0.00000      0.00000      0.00000      
8400    0.13408    0.02652    0.04976    0.00080      0.05273      0.01243      0.00000      0.00000      0.00000      
8500    0.13408    0.02652    0.04976    0.00080      0.05273      0.01247      0.00000      0.00000      0.00000      
8600    0.13407    0.02652    0.04976    0.00080      0.05273      0.01246      0.00000      0.00000      0.00000      
8700    0.13406    0.02652    0.04975    0.00080      0.05273      0.01249      0.00000      0.00000      0.00000      
8800    0.13406    0.02652    0.04975    0.00080      0.05273      0.01243      0.00000      0.00000      0.00000      
8900    0.13405    0.02652    0.04975    0.00081      0.05273      0.01244      0.00000      0.00000      0.00000      
9000    0.13404    0.02651    0.04975    0.00080      0.05272      0.01245      0.00000      0.00000      0.00000      
9100    0.13404    0.02651    0.04974    0.00080      0.05272      0.01246      0.00000      0.00000      0.00000      
9200    0.13403    0.02651    0.04974    0.00080      0.05272      0.01245      0.00000      0.00000      0.00000      
9300    0.13402    0.02651    0.04974    0.00080      0.05272      0.01244      0.00000      0.00000      0.00000      
9400    0.13402    0.02651    0.04974    0.00080      0.05272      0.01245      0.00000      0.00000      0.00000      
9500    0.13401    0.02650    0.04973    0.00080      0.05272      0.01244      0.00000      0.00000      0.00000      
9600    0.13401    0.02650    0.04973    0.00080      0.05272      0.01245      0.00000      0.00000      0.00000      
9700    0.13399    0.02650    0.04973    0.00080      0.05271      0.01243      0.00000      0.00000      0.00000      
9800    0.13399    0.02650    0.04972    0.00080      0.05271      0.01244      0.00000      0.00000      0.00000      
9900    0.13398    0.02650    0.04972    0.00080      0.05271      0.01246      0.00000      0.00000      0.00000      
10000   0.13398    0.02649    0.04972    0.00081      0.05270      0.01245      0.00000      0.00000      0.00000      
10100   0.13397    0.02649    0.04972    0.00081      0.05270      0.01244      0.00000      0.00000      0.00000      
10200   0.13396    0.02649    0.04971    0.00080      0.05270      0.01244      0.00000      0.00000      0.00000      
10300   0.13395    0.02648    0.04971    0.00080      0.05270      0.01244      0.00000      0.00000      0.00000      
10400   0.13395    0.02648    0.04971    0.00080      0.05270      0.01245      0.00000      0.00000      0.00000      
10500   0.13394    0.02648    0.04970    0.00080      0.05270      0.01244      0.00000      0.00000      0.00000      
10600   0.13394    0.02648    0.04970    0.00080      0.05270      0.01243      0.00000      0.00000      0.00000      
10700   0.13393    0.02648    0.04970    0.00080      0.05269      0.01244      0.00000      0.00000      0.00000      
10800   0.13392    0.02648    0.04969    0.00081      0.05269      0.01244      0.00000      0.00000      0.00000      
10900   0.13392    0.02648    0.04969    0.00080      0.05269      0.01245      0.00000      0.00000      0.00000      
11000   0.13391    0.02647    0.04969    0.00080      0.05269      0.01246      0.00000      0.00000      0.00000      
11100   0.13390    0.02647    0.04969    0.00081      0.05269      0.01242      0.00000      0.00000      0.00000      
11200   0.13389    0.02647    0.04968    0.00080      0.05268      0.01246      0.00000      0.00000      0.00000      
11300   0.13389    0.02646    0.04968    0.00080      0.05269      0.01244      0.00000      0.00000      0.00000      
11400   0.13387    0.02646    0.04968    0.00081      0.05268      0.01244      0.00000      0.00000      0.00000      
11500   0.13387    0.02646    0.04967    0.00080      0.05268      0.01245      0.00000      0.00000      0.00000      
11600   0.13386    0.02646    0.04967    0.00080      0.05268      0.01242      0.00000      0.00000      0.00000      
11700   0.13386    0.02645    0.04967    0.00080      0.05268      0.01241      0.00000      0.00000      0.00000      
11800   0.13385    0.02645    0.04967    0.00080      0.05268      0.01242      0.00000      0.00000      0.00000      
11900   0.13385    0.02646    0.04966    0.00080      0.05268      0.01241      0.00000      0.00000      0.00000      
12000   0.13384    0.02645    0.04966    0.00080      0.05267      0.01243      0.00000      0.00000      0.00000      
12100   0.13384    0.02645    0.04966    0.00080      0.05267      0.01243      0.00000      0.00000      0.00000      
12200   0.13383    0.02645    0.04966    0.00080      0.05267      0.01243      0.00000      0.00000      0.00000      
12300   0.13383    0.02645    0.04965    0.00081      0.05267      0.01242      0.00000      0.00000      0.00000      
12400   0.13382    0.02645    0.04965    0.00081      0.05267      0.01241      0.00000      0.00000      0.00000      
12500   0.13381    0.02644    0.04965    0.00081      0.05267      0.01242      0.00000      0.00000      0.00000      
12600   0.13380    0.02644    0.04965    0.00081      0.05267      0.01240      0.00000      0.00000      0.00000      
12700   0.13380    0.02644    0.04964    0.00081      0.05267      0.01242      0.00000      0.00000      0.00000      
12800   0.13379    0.02644    0.04964    0.00080      0.05266      0.01240      0.00000      0.00000      0.00000      
12900   0.13378    0.02644    0.04964    0.00081      0.05266      0.01242      0.00000      0.00000      0.00000      
13000   0.13378    0.02643    0.04963    0.00080      0.05266      0.01241      0.00000      0.00000      0.00000      
13100   0.13377    0.02643    0.04963    0.00081      0.05266      0.01241      0.00000      0.00000      0.00000      
13200   0.13376    0.02643    0.04963    0.00081      0.05266      0.01242      0.00000      0.00000      0.00000      
13300   0.13375    0.02643    0.04962    0.00080      0.05265      0.01241      0.00000      0.00000      0.00000      
13400   0.13375    0.02643    0.04962    0.00081      0.05265      0.01241      0.00000      0.00000      0.00000      
13500   0.13374    0.02642    0.04962    0.00080      0.05265      0.01243      0.00000      0.00000      0.00000      
13600   0.13373    0.02642    0.04962    0.00080      0.05265      0.01243      0.00000      0.00000      0.00000      
13700   0.13373    0.02642    0.04961    0.00081      0.05265      0.01242      0.00000      0.00000      0.00000      
13800   0.13372    0.02641    0.04961    0.00081      0.05265      0.01238      0.00000      0.00000      0.00000      
13900   0.13372    0.02641    0.04961    0.00081      0.05265      0.01240      0.00000      0.00000      0.00000      
14000   0.13371    0.02641    0.04960    0.00080      0.05264      0.01243      0.00000      0.00000      0.00000      
14100   0.13370    0.02641    0.04960    0.00080      0.05264      0.01244      0.00000      0.00000      0.00000      
14200   0.13369    0.02641    0.04960    0.00080      0.05264      0.01243      0.00000      0.00000      0.00000      
14300   0.13369    0.02640    0.04960    0.00080      0.05264      0.01245      0.00000      0.00000      0.00000      
14400   0.13368    0.02640    0.04959    0.00081      0.05264      0.01243      0.00000      0.00000      0.00000      
14500   0.13367    0.02640    0.04959    0.00081      0.05263      0.01243      0.00000      0.00000      0.00000      
14600   0.13367    0.02640    0.04959    0.00081      0.05264      0.01242      0.00000      0.00000      0.00000      
14700   0.13366    0.02640    0.04959    0.00080      0.05263      0.01241      0.00000      0.00000      0.00000      
14800   0.13366    0.02639    0.04958    0.00081      0.05263      0.01241      0.00000      0.00000      0.00000      
14900   0.13365    0.02639    0.04958    0.00080      0.05263      0.01243      0.00000      0.00000      0.00000      
15000   0.13364    0.02639    0.04958    0.00081      0.05263      0.01242      0.00000      0.00000      0.00000      
15100   0.13364    0.02639    0.04958    0.00081      0.05263      0.01243      0.00000      0.00000      0.00000      
15200   0.13363    0.02638    0.04957    0.00081      0.05263      0.01240      0.00000      0.00000      0.00000      
15300   0.13362    0.02638    0.04957    0.00081      0.05262      0.01242      0.00000      0.00000      0.00000      
15400   0.13362    0.02638    0.04957    0.00080      0.05262      0.01246      0.00000      0.00000      0.00000      
15500   0.13361    0.02638    0.04956    0.00081      0.05262      0.01242      0.00000      0.00000      0.00000      
15600   0.13360    0.02638    0.04956    0.00081      0.05262      0.01242      0.00000      0.00000      0.00000      
15700   0.13360    0.02638    0.04956    0.00081      0.05262      0.01242      0.00000      0.00000      0.00000      
15800   0.13360    0.02637    0.04956    0.00080      0.05262      0.01245      0.00000      0.00000      0.00000      
15900   0.13359    0.02637    0.04955    0.00080      0.05262      0.01243      0.00000      0.00000      0.00000      
16000   0.13358    0.02637    0.04955    0.00080      0.05261      0.01243      0.00000      0.00000      0.00000      
16100   0.13357    0.02637    0.04955    0.00081      0.05261      0.01244      0.00000      0.00000      0.00000      
16200   0.13357    0.02636    0.04955    0.00080      0.05261      0.01241      0.00000      0.00000      0.00000      
16300   0.13356    0.02636    0.04954    0.00081      0.05261      0.01240      0.00000      0.00000      0.00000      
16400   0.13355    0.02636    0.04954    0.00081      0.05261      0.01242      0.00000      0.00000      0.00000      
16500   0.13355    0.02636    0.04954    0.00081      0.05260      0.01240      0.00000      0.00000      0.00000      
16600   0.13354    0.02636    0.04954    0.00080      0.05260      0.01239      0.00000      0.00000      0.00000      
16700   0.13354    0.02636    0.04953    0.00080      0.05260      0.01241      0.00000      0.00000      0.00000      
16800   0.13353    0.02635    0.04953    0.00080      0.05260      0.01243      0.00000      0.00000      0.00000      
16900   0.13352    0.02635    0.04953    0.00080      0.05260      0.01240      0.00000      0.00000      0.00000      
17000   0.13352    0.02635    0.04952    0.00080      0.05260      0.01242      0.00000      0.00000      0.00000      
17100   0.13351    0.02635    0.04952    0.00080      0.05260      0.01242      0.00000      0.00000      0.00000      
17200   0.13350    0.02634    0.04952    0.00080      0.05260      0.01243      0.00000      0.00000      0.00000      
17300   0.13350    0.02634    0.04952    0.00080      0.05259      0.01243      0.00000      0.00000      0.00000      
17400   0.13349    0.02634    0.04951    0.00080      0.05259      0.01242      0.00000      0.00000      0.00000      
17500   0.13348    0.02634    0.04951    0.00080      0.05259      0.01243      0.00000      0.00000      0.00000      
17600   0.13348    0.02634    0.04951    0.00081      0.05258      0.01245      0.00000      0.00000      0.00000      
17700   0.13347    0.02634    0.04951    0.00081      0.05258      0.01243      0.00000      0.00000      0.00000      
17800   0.13347    0.02634    0.04950    0.00081      0.05258      0.01244      0.00000      0.00000      0.00000      
17900   0.13346    0.02634    0.04950    0.00081      0.05258      0.01244      0.00000      0.00000      0.00000      
18000   0.13346    0.02633    0.04950    0.00081      0.05258      0.01243      0.00000      0.00000      0.00000      
18100   0.13345    0.02633    0.04949    0.00081      0.05258      0.01243      0.00000      0.00000      0.00000      
18200   0.13344    0.02633    0.04949    0.00081      0.05258      0.01244      0.00000      0.00000      0.00000      
18300   0.13344    0.02633    0.04949    0.00081      0.05258      0.01242      0.00000      0.00000      0.00000      
18400   0.13343    0.02632    0.04949    0.00081      0.05258      0.01243      0.00000      0.00000      0.00000      
18500   0.13343    0.02632    0.04949    0.00081      0.05258      0.01243      0.00000      0.00000      0.00000      
18600   0.13342    0.02632    0.04948    0.00080      0.05258      0.01241      0.00000      0.00000      0.00000      
18700   0.13342    0.02632    0.04948    0.00080      0.05258      0.01240      0.00000      0.00000      0.00000      
18800   0.13341    0.02632    0.04948    0.00080      0.05258      0.01242      0.00000      0.00000      0.00000      
18900   0.13341    0.02632    0.04948    0.00080      0.05258      0.01243      0.00000      0.00000      0.00000      
19000   0.13340    0.02631    0.04948    0.00080      0.05257      0.01241      0.00000      0.00000      0.00000      
19100   0.13340    0.02631    0.04947    0.00080      0.05257      0.01241      0.00000      0.00000      0.00000      
19200   0.13339    0.02631    0.04947    0.00080      0.05257      0.01242      0.00000      0.00000      0.00000      
19300   0.13339    0.02631    0.04947    0.00080      0.05257      0.01240      0.00000      0.00000      0.00000      
19400   0.13338    0.02631    0.04947    0.00080      0.05257      0.01242      0.00000      0.00000      0.00000      
19500   0.13337    0.02631    0.04946    0.00080      0.05257      0.01242      0.00000      0.00000      0.00000      
19600   0.13337    0.02630    0.04946    0.00080      0.05257      0.01244      0.00000      0.00000      0.00000      
19700   0.13336    0.02630    0.04946    0.00080      0.05256      0.01243      0.00000      0.00000      0.00000      
19800   0.13335    0.02630    0.04945    0.00080      0.05256      0.01241      0.00000      0.00000      0.00000      
19900   0.13335    0.02630    0.04945    0.00080      0.05256      0.01242      0.00000      0.00000      0.00000      
20000   0.13334    0.02629    0.04945    0.00080      0.05256      0.01238      0.00000      0.00000      0.00000      
20100   0.13333    0.02629    0.04945    0.00080      0.05256      0.01239      0.00000      0.00000      0.00000      
20200   0.13333    0.02629    0.04944    0.00080      0.05256      0.01241      0.00000      0.00000      0.00000      
20300   0.13332    0.02629    0.04944    0.00080      0.05255      0.01243      0.00000      0.00000      0.00000      
20400   0.13331    0.02629    0.04944    0.00080      0.05255      0.01243      0.00000      0.00000      0.00000      
20500   0.13331    0.02628    0.04944    0.00080      0.05255      0.01245      0.00000      0.00000      0.00000      
20600   0.13330    0.02628    0.04944    0.00080      0.05255      0.01242      0.00000      0.00000      0.00000      
20700   0.13330    0.02628    0.04943    0.00080      0.05255      0.01240      0.00000      0.00000      0.00000      
20800   0.13329    0.02628    0.04943    0.00080      0.05255      0.01240      0.00000      0.00000      0.00000      
20900   0.13329    0.02628    0.04943    0.00080      0.05255      0.01241      0.00000      0.00000      0.00000      
21000   0.13328    0.02627    0.04943    0.00080      0.05254      0.01241      0.00000      0.00000      0.00000      
21100   0.13327    0.02627    0.04942    0.00080      0.05254      0.01241      0.00000      0.00000      0.00000      
21200   0.13327    0.02627    0.04942    0.00080      0.05254      0.01242      0.00000      0.00000      0.00000      
21300   0.13326    0.02627    0.04942    0.00080      0.05254      0.01242      0.00000      0.00000      0.00000      
21400   0.13325    0.02627    0.04942    0.00080      0.05254      0.01242      0.00000      0.00000      0.00000      
21500   0.13325    0.02626    0.04941    0.00080      0.05254      0.01241      0.00000      0.00000      0.00000      
21600   0.13325    0.02626    0.04941    0.00080      0.05254      0.01239      0.00000      0.00000      0.00000      
21700   0.13324    0.02626    0.04941    0.00080      0.05254      0.01241      0.00000      0.00000      0.00000      
21800   0.13323    0.02626    0.04941    0.00080      0.05253      0.01242      0.00000      0.00000      0.00000      
21900   0.13323    0.02626    0.04940    0.00080      0.05253      0.01242      0.00000      0.00000      0.00000      
22000   0.13322    0.02626    0.04940    0.00080      0.05253      0.01241      0.00000      0.00000      0.00000      
22100   0.13322    0.02626    0.04940    0.00080      0.05253      0.01242      0.00000      0.00000      0.00000      
22200   0.13321    0.02625    0.04940    0.00080      0.05253      0.01241      0.00000      0.00000      0.00000      
22300   0.13321    0.02625    0.04939    0.00080      0.05253      0.01240      0.00000      0.00000      0.00000      
22400   0.13320    0.02625    0.04939    0.00080      0.05253      0.01237      0.00000      0.00000      0.00000      
22500   0.13320    0.02625    0.04939    0.00080      0.05253      0.01240      0.00000      0.00000      0.00000      
22600   0.13319    0.02624    0.04939    0.00080      0.05253      0.01238      0.00000      0.00000      0.00000      
22700   0.13319    0.02624    0.04939    0.00080      0.05253      0.01241      0.00000      0.00000      0.00000      
22800   0.13318    0.02624    0.04938    0.00080      0.05252      0.01237      0.00000      0.00000      0.00000      
22900   0.13317    0.02624    0.04938    0.00080      0.05252      0.01240      0.00000      0.00000      0.00000      
23000   0.13316    0.02624    0.04938    0.00080      0.05252      0.01239      0.00000      0.00000      0.00000      
23100   0.13316    0.02623    0.04937    0.00080      0.05252      0.01239      0.00000      0.00000      0.00000      
23200   0.13315    0.02623    0.04937    0.00080      0.05252      0.01238      0.00000      0.00000      0.00000      
23300   0.13315    0.02623    0.04937    0.00080      0.05252      0.01236      0.00000      0.00000      0.00000      
23400   0.13314    0.02623    0.04937    0.00080      0.05252      0.01236      0.00000      0.00000      0.00000      
23500   0.13314    0.02623    0.04937    0.00080      0.05252      0.01235      0.00000      0.00000      0.00000      
23600   0.13313    0.02623    0.04936    0.00080      0.05251      0.01235      0.00000      0.00000      0.00000      
23700   0.13313    0.02622    0.04936    0.00080      0.05251      0.01237      0.00000      0.00000      0.00000      
23800   0.13312    0.02622    0.04936    0.00080      0.05251      0.01232      0.00000      0.00000      0.00000      
23900   0.13312    0.02622    0.04936    0.00080      0.05251      0.01235      0.00000      0.00000      0.00000      
24000   0.13311    0.02622    0.04935    0.00080      0.05251      0.01236      0.00000      0.00000      0.00000      
24100   0.13311    0.02622    0.04935    0.00080      0.05251      0.01236      0.00000      0.00000      0.00000      
24200   0.13310    0.02622    0.04935    0.00080      0.05251      0.01235      0.00000      0.00000      0.00000      
24300   0.13309    0.02621    0.04935    0.00080      0.05250      0.01235      0.00000      0.00000      0.00000      
24400   0.13309    0.02621    0.04934    0.00080      0.05250      0.01236      0.00000      0.00000      0.00000      
24500   0.13308    0.02621    0.04934    0.00080      0.05250      0.01237      0.00000      0.00000      0.00000      
24600   0.13307    0.02621    0.04934    0.00080      0.05250      0.01238      0.00000      0.00000      0.00000      
24700   0.13307    0.02620    0.04934    0.00080      0.05250      0.01238      0.00000      0.00000      0.00000      
24800   0.13306    0.02620    0.04933    0.00080      0.05250      0.01237      0.00000      0.00000      0.00000      
24900   0.13305    0.02620    0.04933    0.00080      0.05249      0.01235      0.00000      0.00000      0.00000      
25000   0.13305    0.02620    0.04933    0.00080      0.05249      0.01237      0.00000      0.00000      0.00000      
25100   0.13305    0.02620    0.04933    0.00080      0.05249      0.01237      0.00000      0.00000      0.00000      
25200   0.13304    0.02620    0.04932    0.00080      0.05249      0.01236      0.00000      0.00000      0.00000      
25300   0.13303    0.02619    0.04932    0.00080      0.05249      0.01236      0.00000      0.00000      0.00000      
25400   0.13303    0.02619    0.04932    0.00080      0.05249      0.01236      0.00000      0.00000      0.00000      
25500   0.13302    0.02619    0.04932    0.00080      0.05249      0.01237      0.00000      0.00000      0.00000      
25600   0.13302    0.02619    0.04932    0.00080      0.05248      0.01239      0.00000      0.00000      0.00000      
25700   0.13301    0.02619    0.04931    0.00080      0.05248      0.01237      0.00000      0.00000      0.00000      
25800   0.13301    0.02619    0.04931    0.00080      0.05248      0.01238      0.00000      0.00000      0.00000      
25900   0.13300    0.02618    0.04931    0.00080      0.05248      0.01239      0.00000      0.00000      0.00000      
26000   0.13300    0.02619    0.04931    0.00080      0.05248      0.01240      0.00000      0.00000      0.00000      
26100   0.13299    0.02618    0.04930    0.00080      0.05248      0.01239      0.00000      0.00000      0.00000      
26200   0.13298    0.02618    0.04930    0.00080      0.05247      0.01238      0.00000      0.00000      0.00000      
26300   0.13297    0.02618    0.04930    0.00080      0.05247      0.01238      0.00000      0.00000      0.00000      
26400   0.13297    0.02618    0.04930    0.00080      0.05247      0.01239      0.00000      0.00000      0.00000      
26500   0.13296    0.02618    0.04929    0.00080      0.05247      0.01238      0.00000      0.00000      0.00000      
26600   0.13296    0.02618    0.04929    0.00080      0.05247      0.01236      0.00000      0.00000      0.00000      
26700   0.13296    0.02617    0.04929    0.00080      0.05247      0.01234      0.00000      0.00000      0.00000      
26800   0.13295    0.02617    0.04929    0.00080      0.05247      0.01235      0.00000      0.00000      0.00000      
26900   0.13294    0.02617    0.04928    0.00080      0.05246      0.01236      0.00000      0.00000      0.00000      
27000   0.13294    0.02617    0.04928    0.00080      0.05246      0.01238      0.00000      0.00000      0.00000      
27100   0.13293    0.02616    0.04928    0.00080      0.05246      0.01237      0.00000      0.00000      0.00000      
27200   0.13293    0.02616    0.04928    0.00080      0.05246      0.01237      0.00000      0.00000      0.00000      
27300   0.13292    0.02616    0.04928    0.00080      0.05246      0.01234      0.00000      0.00000      0.00000      
27400   0.13292    0.02616    0.04927    0.00080      0.05246      0.01237      0.00000      0.00000      0.00000      
27500   0.13291    0.02616    0.04927    0.00080      0.05246      0.01236      0.00000      0.00000      0.00000      
27600   0.13291    0.02616    0.04927    0.00080      0.05246      0.01236      0.00000      0.00000      0.00000      
27700   0.13290    0.02616    0.04927    0.00080      0.05246      0.01234      0.00000      0.00000      0.00000      
27800   0.13290    0.02615    0.04926    0.00080      0.05246      0.01235      0.00000      0.00000      0.00000      
27900   0.13289    0.02615    0.04926    0.00080      0.05245      0.01235      0.00000      0.00000      0.00000      
28000   0.13289    0.02615    0.04926    0.00080      0.05245      0.01234      0.00000      0.00000      0.00000      
28100   0.13288    0.02615    0.04926    0.00080      0.05245      0.01236      0.00000      0.00000      0.00000      
28200   0.13288    0.02615    0.04926    0.00080      0.05245      0.01235      0.00000      0.00000      0.00000      
28300   0.13287    0.02614    0.04925    0.00080      0.05245      0.01238      0.00000      0.00000      0.00000      
28400   0.13286    0.02614    0.04925    0.00080      0.05244      0.01238      0.00000      0.00000      0.00000      
28500   0.13286    0.02614    0.04925    0.00080      0.05244      0.01237      0.00000      0.00000      0.00000      
28600   0.13286    0.02614    0.04925    0.00080      0.05244      0.01235      0.00000      0.00000      0.00000      
28700   0.13285    0.02614    0.04924    0.00080      0.05244      0.01236      0.00000      0.00000      0.00000      
28800   0.13285    0.02614    0.04924    0.00080      0.05244      0.01233      0.00000      0.00000      0.00000      
28900   0.13284    0.02614    0.04924    0.00080      0.05244      0.01235      0.00000      0.00000      0.00000      
29000   0.13283    0.02613    0.04924    0.00080      0.05244      0.01234      0.00000      0.00000      0.00000      
29100   0.13283    0.02613    0.04923    0.00080      0.05244      0.01235      0.00000      0.00000      0.00000      
29200   0.13282    0.02613    0.04923    0.00080      0.05243      0.01234      0.00000      0.00000      0.00000      
29300   0.13282    0.02613    0.04923    0.00080      0.05243      0.01236      0.00000      0.00000      0.00000      
29400   0.13281    0.02613    0.04923    0.00080      0.05243      0.01236      0.00000      0.00000      0.00000      
29500   0.13280    0.02613    0.04922    0.00080      0.05243      0.01235      0.00000      0.00000      0.00000      
29600   0.13280    0.02613    0.04922    0.00080      0.05243      0.01236      0.00000      0.00000      0.00000      
29700   0.13279    0.02612    0.04922    0.00080      0.05242      0.01236      0.00000      0.00000      0.00000      
29800   0.13279    0.02612    0.04922    0.00080      0.05243      0.01235      0.00000      0.00000      0.00000      
29900   0.13278    0.02612    0.04921    0.00080      0.05243      0.01236      0.00000      0.00000      0.00000      
30000   0.13278    0.02612    0.04921    0.00080      0.05242      0.01234      0.00000      0.00000      0.00000      
30100   0.13277    0.02612    0.04921    0.00080      0.05242      0.01236      0.00000      0.00000      0.00000      
30200   0.13276    0.02612    0.04921    0.00080      0.05242      0.01237      0.00000      0.00000      0.00000      
30300   0.13276    0.02612    0.04921    0.00080      0.05242      0.01235      0.00000      0.00000      0.00000      
30400   0.13276    0.02611    0.04920    0.00080      0.05242      0.01234      0.00000      0.00000      0.00000      
30500   0.13275    0.02611    0.04920    0.00080      0.05242      0.01234      0.00000      0.00000      0.00000      
30600   0.13274    0.02611    0.04920    0.00080      0.05241      0.01235      0.00000      0.00000      0.00000      
30700   0.13274    0.02610    0.04920    0.00080      0.05241      0.01232      0.00000      0.00000      0.00000      
30800   0.13274    0.02610    0.04920    0.00080      0.05242      0.01231      0.00000      0.00000      0.00000      
30900   0.13273    0.02610    0.04919    0.00080      0.05241      0.01234      0.00000      0.00000      0.00000      
31000   0.13273    0.02610    0.04919    0.00080      0.05241      0.01232      0.00000      0.00000      0.00000      
31100   0.13272    0.02610    0.04919    0.00080      0.05241      0.01233      0.00000      0.00000      0.00000      
31200   0.13272    0.02610    0.04919    0.00080      0.05241      0.01234      0.00000      0.00000      0.00000      
31300   0.13271    0.02610    0.04919    0.00080      0.05241      0.01235      0.00000      0.00000      0.00000      
31400   0.13270    0.02609    0.04918    0.00080      0.05240      0.01236      0.00000      0.00000      0.00000      
31500   0.13270    0.02609    0.04918    0.00080      0.05240      0.01235      0.00000      0.00000      0.00000      
31600   0.13269    0.02609    0.04918    0.00080      0.05240      0.01237      0.00000      0.00000      0.00000      
31700   0.13269    0.02609    0.04917    0.00080      0.05240      0.01235      0.00000      0.00000      0.00000      
31800   0.13268    0.02609    0.04917    0.00080      0.05240      0.01233      0.00000      0.00000      0.00000      
31900   0.13268    0.02609    0.04917    0.00080      0.05240      0.01234      0.00000      0.00000      0.00000      
32000   0.13267    0.02609    0.04917    0.00080      0.05240      0.01235      0.00000      0.00000      0.00000      
32100   0.13267    0.02609    0.04917    0.00080      0.05240      0.01234      0.00000      0.00000      0.00000      
32200   0.13266    0.02608    0.04916    0.00080      0.05239      0.01237      0.00000      0.00000      0.00000      
32300   0.13265    0.02608    0.04916    0.00080      0.05239      0.01238      0.00000      0.00000      0.00000      
32400   0.13265    0.02608    0.04916    0.00080      0.05239      0.01237      0.00000      0.00000      0.00000      
32500   0.13265    0.02608    0.04916    0.00080      0.05239      0.01238      0.00000      0.00000      0.00000      
32600   0.13264    0.02607    0.04915    0.00080      0.05239      0.01237      0.00000      0.00000      0.00000      
32700   0.13263    0.02607    0.04915    0.00080      0.05238      0.01237      0.00000      0.00000      0.00000      
32800   0.13263    0.02607    0.04915    0.00080      0.05238      0.01237      0.00000      0.00000      0.00000      
32900   0.13262    0.02607    0.04915    0.00080      0.05238      0.01237      0.00000      0.00000      0.00000      
33000   0.13262    0.02607    0.04915    0.00080      0.05238      0.01237      0.00000      0.00000      0.00000      
33100   0.13261    0.02607    0.04914    0.00080      0.05238      0.01236      0.00000      0.00000      0.00000      
33200   0.13261    0.02606    0.04914    0.00080      0.05238      0.01237      0.00000      0.00000      0.00000      
33300   0.13260    0.02606    0.04914    0.00080      0.05238      0.01236      0.00000      0.00000      0.00000      
33400   0.13259    0.02606    0.04914    0.00080      0.05238      0.01236      0.00000      0.00000      0.00000      
33500   0.13259    0.02606    0.04913    0.00080      0.05238      0.01234      0.00000      0.00000      0.00000      
33600   0.13258    0.02606    0.04913    0.00080      0.05238      0.01233      0.00000      0.00000      0.00000      
33700   0.13258    0.02606    0.04913    0.00080      0.05238      0.01234      0.00000      0.00000      0.00000      
33800   0.13258    0.02605    0.04913    0.00080      0.05238      0.01232      0.00000      0.00000      0.00000      
33900   0.13257    0.02605    0.04913    0.00080      0.05237      0.01233      0.00000      0.00000      0.00000      
34000   0.13256    0.02605    0.04912    0.00080      0.05237      0.01234      0.00000      0.00000      0.00000      
34100   0.13256    0.02605    0.04912    0.00080      0.05237      0.01234      0.00000      0.00000      0.00000      
34200   0.13255    0.02605    0.04912    0.00080      0.05237      0.01234      0.00000      0.00000      0.00000      
34300   0.13254    0.02604    0.04912    0.00080      0.05237      0.01235      0.00000      0.00000      0.00000      
34400   0.13254    0.02604    0.04911    0.00080      0.05237      0.01235      0.00000      0.00000      0.00000      
34500   0.13253    0.02604    0.04911    0.00080      0.05236      0.01235      0.00000      0.00000      0.00000      
34600   0.13253    0.02604    0.04911    0.00080      0.05236      0.01235      0.00000      0.00000      0.00000      
34700   0.13252    0.02604    0.04911    0.00080      0.05236      0.01234      0.00000      0.00000      0.00000      
34800   0.13252    0.02604    0.04910    0.00080      0.05236      0.01234      0.00000      0.00000      0.00000      
34900   0.13251    0.02604    0.04910    0.00080      0.05236      0.01237      0.00000      0.00000      0.00000      
35000   0.13251    0.02604    0.04910    0.00080      0.05236      0.01235      0.00000      0.00000      0.00000      
35100   0.13250    0.02604    0.04910    0.00080      0.05235      0.01235      0.00000      0.00000      0.00000      
35200   0.13250    0.02603    0.04910    0.00080      0.05235      0.01234      0.00000      0.00000      0.00000      
35300   0.13249    0.02603    0.04909    0.00080      0.05235      0.01233      0.00000      0.00000      0.00000      
35400   0.13248    0.02603    0.04909    0.00079      0.05235      0.01233      0.00000      0.00000      0.00000      
35500   0.13248    0.02603    0.04909    0.00080      0.05235      0.01234      0.00000      0.00000      0.00000      
35600   0.13247    0.02602    0.04909    0.00080      0.05235      0.01234      0.00000      0.00000      0.00000      
35700   0.13247    0.02602    0.04908    0.00080      0.05235      0.01236      0.00000      0.00000      0.00000      
35800   0.13246    0.02602    0.04908    0.00080      0.05235      0.01238      0.00000      0.00000      0.00000      
35900   0.13246    0.02602    0.04908    0.00080      0.05234      0.01236      0.00000      0.00000      0.00000      
36000   0.13245    0.02602    0.04908    0.00080      0.05234      0.01236      0.00000      0.00000      0.00000      
36100   0.13245    0.02602    0.04908    0.00080      0.05234      0.01235      0.00000      0.00000      0.00000      
36200   0.13244    0.02602    0.04907    0.00080      0.05234      0.01235      0.00000      0.00000      0.00000      
36300   0.13244    0.02601    0.04907    0.00080      0.05234      0.01233      0.00000      0.00000      0.00000      
36400   0.13243    0.02601    0.04907    0.00080      0.05234      0.01233      0.00000      0.00000      0.00000      
36500   0.13243    0.02601    0.04907    0.00080      0.05234      0.01235      0.00000      0.00000      0.00000      
36600   0.13242    0.02601    0.04906    0.00080      0.05233      0.01234      0.00000      0.00000      0.00000      
36700   0.13241    0.02601    0.04906    0.00080      0.05233      0.01234      0.00000      0.00000      0.00000      
36800   0.13241    0.02600    0.04906    0.00080      0.05233      0.01234      0.00000      0.00000      0.00000      
36900   0.13241    0.02600    0.04906    0.00080      0.05233      0.01236      0.00000      0.00000      0.00000      
37000   0.13240    0.02600    0.04906    0.00080      0.05233      0.01233      0.00000      0.00000      0.00000      
37100   0.13240    0.02600    0.04905    0.00080      0.05233      0.01232      0.00000      0.00000      0.00000      
37200   0.13239    0.02600    0.04905    0.00080      0.05233      0.01234      0.00000      0.00000      0.00000      
37300   0.13239    0.02600    0.04905    0.00080      0.05233      0.01233      0.00000      0.00000      0.00000      
37400   0.13238    0.02600    0.04905    0.00080      0.05233      0.01234      0.00000      0.00000      0.00000      
37500   0.13238    0.02599    0.04905    0.00080      0.05232      0.01232      0.00000      0.00000      0.00000      
37600   0.13237    0.02599    0.04904    0.00080      0.05232      0.01231      0.00000      0.00000      0.00000      
37700   0.13237    0.02599    0.04904    0.00080      0.05232      0.01231      0.00000      0.00000      0.00000      
37800   0.13236    0.02599    0.04904    0.00079      0.05232      0.01235      0.00000      0.00000      0.00000      
37900   0.13235    0.02599    0.04904    0.00080      0.05232      0.01234      0.00000      0.00000      0.00000      
38000   0.13235    0.02599    0.04904    0.00079      0.05232      0.01235      0.00000      0.00000      0.00000      
38100   0.13235    0.02598    0.04903    0.00079      0.05232      0.01233      0.00000      0.00000      0.00000      
38200   0.13235    0.02598    0.04903    0.00079      0.05232      0.01234      0.00000      0.00000      0.00000      
38300   0.13234    0.02598    0.04903    0.00080      0.05231      0.01236      0.00000      0.00000      0.00000      
38400   0.13234    0.02598    0.04903    0.00079      0.05231      0.01236      0.00000      0.00000      0.00000      
38500   0.13233    0.02598    0.04903    0.00080      0.05231      0.01236      0.00000      0.00000      0.00000      
38600   0.13233    0.02598    0.04902    0.00080      0.05231      0.01236      0.00000      0.00000      0.00000      
38700   0.13232    0.02598    0.04902    0.00080      0.05231      0.01234      0.00000      0.00000      0.00000      
38800   0.13231    0.02597    0.04902    0.00080      0.05231      0.01237      0.00000      0.00000      0.00000      
38900   0.13231    0.02597    0.04902    0.00080      0.05231      0.01236      0.00000      0.00000      0.00000      
39000   0.13231    0.02597    0.04902    0.00079      0.05231      0.01235      0.00000      0.00000      0.00000      
39100   0.13230    0.02597    0.04901    0.00080      0.05231      0.01234      0.00000      0.00000      0.00000      
39200   0.13230    0.02597    0.04901    0.00080      0.05230      0.01238      0.00000      0.00000      0.00000      
39300   0.13229    0.02597    0.04901    0.00080      0.05230      0.01239      0.00000      0.00000      0.00000      
39400   0.13229    0.02597    0.04901    0.00080      0.05230      0.01240      0.00000      0.00000      0.00000      
39500   0.13228    0.02597    0.04901    0.00080      0.05230      0.01237      0.00000      0.00000      0.00000      
39600   0.13228    0.02596    0.04900    0.00080      0.05230      0.01236      0.00000      0.00000      0.00000      
39700   0.13227    0.02596    0.04900    0.00080      0.05230      0.01236      0.00000      0.00000      0.00000      
39800   0.13227    0.02596    0.04900    0.00080      0.05230      0.01234      0.00000      0.00000      0.00000      
39900   0.13226    0.02596    0.04900    0.00080      0.05230      0.01235      0.00000      0.00000      0.00000      
40000   0.13226    0.02596    0.04900    0.00080      0.05230      0.01234      0.00000      0.00000      0.00000      
40100   0.13226    0.02596    0.04899    0.00080      0.05229      0.01234      0.00000      0.00000      0.00000      
40200   0.13225    0.02595    0.04899    0.00080      0.05229      0.01234      0.00000      0.00000      0.00000      
40300   0.13224    0.02595    0.04899    0.00079      0.05229      0.01236      0.00000      0.00000      0.00000      
40400   0.13224    0.02595    0.04899    0.00079      0.05229      0.01237      0.00000      0.00000      0.00000      
40500   0.13223    0.02595    0.04899    0.00080      0.05229      0.01235      0.00000      0.00000      0.00000      
40600   0.13223    0.02595    0.04898    0.00080      0.05228      0.01236      0.00000      0.00000      0.00000      
40700   0.13223    0.02595    0.04898    0.00080      0.05228      0.01234      0.00000      0.00000      0.00000      
40800   0.13222    0.02595    0.04898    0.00079      0.05229      0.01237      0.00000      0.00000      0.00000      
40900   0.13222    0.02594    0.04898    0.00079      0.05229      0.01235      0.00000      0.00000      0.00000      
41000   0.13221    0.02594    0.04898    0.00079      0.05228      0.01234      0.00000      0.00000      0.00000      
41100   0.13221    0.02594    0.04897    0.00080      0.05228      0.01233      0.00000      0.00000      0.00000      
41200   0.13220    0.02594    0.04897    0.00080      0.05228      0.01232      0.00000      0.00000      0.00000      
41300   0.13220    0.02594    0.04897    0.00080      0.05228      0.01232      0.00000      0.00000      0.00000      
41400   0.13219    0.02594    0.04897    0.00080      0.05228      0.01234      0.00000      0.00000      0.00000      
41500   0.13219    0.02594    0.04896    0.00080      0.05228      0.01235      0.00000      0.00000      0.00000      
41600   0.13218    0.02593    0.04896    0.00080      0.05227      0.01234      0.00000      0.00000      0.00000      
41700   0.13218    0.02593    0.04896    0.00080      0.05228      0.01235      0.00000      0.00000      0.00000      
41800   0.13217    0.02593    0.04896    0.00080      0.05227      0.01235      0.00000      0.00000      0.00000      
41900   0.13216    0.02593    0.04896    0.00080      0.05227      0.01236      0.00000      0.00000      0.00000      
42000   0.13216    0.02593    0.04895    0.00080      0.05227      0.01235      0.00000      0.00000      0.00000      
42100   0.13215    0.02592    0.04895    0.00080      0.05227      0.01237      0.00000      0.00000      0.00000      
42200   0.13215    0.02592    0.04895    0.00080      0.05227      0.01238      0.00000      0.00000      0.00000      
42300   0.13214    0.02592    0.04895    0.00080      0.05226      0.01237      0.00000      0.00000      0.00000      
42400   0.13214    0.02592    0.04894    0.00080      0.05226      0.01237      0.00000      0.00000      0.00000      
42500   0.13213    0.02592    0.04894    0.00080      0.05226      0.01238      0.00000      0.00000      0.00000      
42600   0.13213    0.02592    0.04894    0.00080      0.05226      0.01237      0.00000      0.00000      0.00000      
42700   0.13212    0.02591    0.04894    0.00080      0.05226      0.01236      0.00000      0.00000      0.00000      
42800   0.13212    0.02591    0.04894    0.00080      0.05226      0.01234      0.00000      0.00000      0.00000      
42900   0.13212    0.02591    0.04894    0.00079      0.05226      0.01238      0.00000      0.00000      0.00000      
43000   0.13211    0.02591    0.04893    0.00080      0.05226      0.01235      0.00000      0.00000      0.00000      
43100   0.13211    0.02591    0.04893    0.00080      0.05226      0.01235      0.00000      0.00000      0.00000      
43200   0.13210    0.02591    0.04893    0.00080      0.05226      0.01234      0.00000      0.00000      0.00000      
43300   0.13210    0.02591    0.04893    0.00080      0.05226      0.01232      0.00000      0.00000      0.00000      
43400   0.13209    0.02591    0.04893    0.00080      0.05226      0.01233      0.00000      0.00000      0.00000      
43500   0.13209    0.02591    0.04892    0.00080      0.05226      0.01234      0.00000      0.00000      0.00000      
43600   0.13208    0.02590    0.04892    0.00079      0.05225      0.01233      0.00000      0.00000      0.00000      
43700   0.13208    0.02590    0.04892    0.00079      0.05225      0.01233      0.00000      0.00000      0.00000      
43800   0.13207    0.02590    0.04892    0.00080      0.05225      0.01233      0.00000      0.00000      0.00000      
43900   0.13206    0.02590    0.04892    0.00080      0.05225      0.01232      0.00000      0.00000      0.00000      
44000   0.13206    0.02590    0.04891    0.00080      0.05225      0.01232      0.00000      0.00000      0.00000      
44100   0.13206    0.02590    0.04891    0.00080      0.05225      0.01231      0.00000      0.00000      0.00000      
44200   0.13205    0.02589    0.04891    0.00080      0.05225      0.01233      0.00000      0.00000      0.00000      
44300   0.13205    0.02589    0.04891    0.00079      0.05225      0.01233      0.00000      0.00000      0.00000      
44400   0.13204    0.02589    0.04891    0.00079      0.05224      0.01234      0.00000      0.00000      0.00000      
44500   0.13204    0.02589    0.04890    0.00080      0.05224      0.01232      0.00000      0.00000      0.00000      
44600   0.13203    0.02589    0.04890    0.00080      0.05224      0.01232      0.00000      0.00000      0.00000      
44700   0.13203    0.02589    0.04890    0.00080      0.05224      0.01232      0.00000      0.00000      0.00000      
44800   0.13202    0.02589    0.04890    0.00080      0.05224      0.01234      0.00000      0.00000      0.00000      
44900   0.13202    0.02588    0.04890    0.00080      0.05224      0.01233      0.00000      0.00000      0.00000      
45000   0.13201    0.02588    0.04889    0.00080      0.05224      0.01233      0.00000      0.00000      0.00000      
45100   0.13201    0.02588    0.04889    0.00079      0.05224      0.01236      0.00000      0.00000      0.00000      
45200   0.13200    0.02588    0.04889    0.00080      0.05223      0.01236      0.00000      0.00000      0.00000      
45300   0.13200    0.02588    0.04889    0.00080      0.05223      0.01233      0.00000      0.00000      0.00000      
45400   0.13199    0.02588    0.04888    0.00080      0.05223      0.01233      0.00000      0.00000      0.00000      
45500   0.13199    0.02588    0.04888    0.00080      0.05223      0.01233      0.00000      0.00000      0.00000      
45600   0.13199    0.02588    0.04888    0.00080      0.05223      0.01233      0.00000      0.00000      0.00000      
45700   0.13198    0.02587    0.04888    0.00079      0.05223      0.01234      0.00000      0.00000      0.00000      
45800   0.13198    0.02587    0.04888    0.00079      0.05223      0.01236      0.00000      0.00000      0.00000      
45900   0.13197    0.02587    0.04887    0.00080      0.05222      0.01235      0.00000      0.00000      0.00000      
46000   0.13197    0.02587    0.04887    0.00080      0.05222      0.01233      0.00000      0.00000      0.00000      
46100   0.13196    0.02587    0.04887    0.00080      0.05222      0.01234      0.00000      0.00000      0.00000      
46200   0.13196    0.02587    0.04887    0.00080      0.05222      0.01233      0.00000      0.00000      0.00000      
46300   0.13195    0.02586    0.04887    0.00080      0.05222      0.01233      0.00000      0.00000      0.00000      
46400   0.13195    0.02586    0.04887    0.00080      0.05222      0.01234      0.00000      0.00000      0.00000      
46500   0.13194    0.02586    0.04886    0.00080      0.05222      0.01234      0.00000      0.00000      0.00000      
46600   0.13194    0.02586    0.04886    0.00080      0.05222      0.01233      0.00000      0.00000      0.00000      
46700   0.13194    0.02586    0.04886    0.00079      0.05222      0.01233      0.00000      0.00000      0.00000      
46800   0.13193    0.02586    0.04886    0.00080      0.05222      0.01233      0.00000      0.00000      0.00000      
46900   0.13193    0.02586    0.04886    0.00079      0.05222      0.01235      0.00000      0.00000      0.00000      
47000   0.13193    0.02586    0.04886    0.00080      0.05222      0.01234      0.00000      0.00000      0.00000      
47100   0.13192    0.02585    0.04885    0.00080      0.05221      0.01235      0.00000      0.00000      0.00000      
47200   0.13192    0.02585    0.04885    0.00080      0.05221      0.01234      0.00000      0.00000      0.00000      
47300   0.13191    0.02585    0.04885    0.00080      0.05221      0.01232      0.00000      0.00000      0.00000      
47400   0.13191    0.02585    0.04885    0.00080      0.05221      0.01233      0.00000      0.00000      0.00000      
47500   0.13190    0.02585    0.04884    0.00080      0.05221      0.01233      0.00000      0.00000      0.00000      
47600   0.13190    0.02585    0.04884    0.00080      0.05221      0.01232      0.00000      0.00000      0.00000      
47700   0.13189    0.02584    0.04884    0.00080      0.05221      0.01232      0.00000      0.00000      0.00000      
47800   0.13189    0.02584    0.04884    0.00080      0.05221      0.01232      0.00000      0.00000      0.00000      
47900   0.13189    0.02584    0.04884    0.00080      0.05221      0.01233      0.00000      0.00000      0.00000      
48000   0.13188    0.02584    0.04884    0.00080      0.05221      0.01235      0.00000      0.00000      0.00000      
48100   0.13188    0.02584    0.04883    0.00080      0.05220      0.01234      0.00000      0.00000      0.00000      
48200   0.13187    0.02584    0.04883    0.00080      0.05221      0.01233      0.00000      0.00000      0.00000      
48300   0.13187    0.02584    0.04883    0.00080      0.05220      0.01233      0.00000      0.00000      0.00000      
48400   0.13186    0.02584    0.04883    0.00080      0.05220      0.01233      0.00000      0.00000      0.00000      
48500   0.13186    0.02583    0.04883    0.00080      0.05220      0.01234      0.00000      0.00000      0.00000      
48600   0.13186    0.02583    0.04882    0.00079      0.05220      0.01233      0.00000      0.00000      0.00000      
48700   0.13185    0.02583    0.04882    0.00080      0.05220      0.01233      0.00000      0.00000      0.00000      
48800   0.13185    0.02583    0.04882    0.00080      0.05220      0.01232      0.00000      0.00000      0.00000      
48900   0.13184    0.02583    0.04882    0.00080      0.05220      0.01233      0.00000      0.00000      0.00000      
49000   0.13184    0.02583    0.04882    0.00079      0.05220      0.01235      0.00000      0.00000      0.00000      
49100   0.13183    0.02583    0.04881    0.00080      0.05219      0.01232      0.00000      0.00000      0.00000      
49200   0.13183    0.02582    0.04881    0.00079      0.05219      0.01235      0.00000      0.00000      0.00000      
49300   0.13182    0.02582    0.04881    0.00080      0.05219      0.01235      0.00000      0.00000      0.00000      
49400   0.13182    0.02582    0.04881    0.00080      0.05219      0.01235      0.00000      0.00000      0.00000      
49500   0.13181    0.02582    0.04881    0.00080      0.05219      0.01237      0.00000      0.00000      0.00000      
49600   0.13181    0.02582    0.04881    0.00080      0.05219      0.01236      0.00000      0.00000      0.00000      
49700   0.13181    0.02582    0.04880    0.00080      0.05218      0.01236      0.00000      0.00000      0.00000      
49800   0.13180    0.02582    0.04880    0.00080      0.05218      0.01237      0.00000      0.00000      0.00000      
49900   0.13179    0.02581    0.04880    0.00080      0.05218      0.01236      0.00000      0.00000      0.00000      
50000   0.13179    0.02581    0.04880    0.00080      0.05218      0.01236      0.00000      0.00000      0.00000      
50100   0.13179    0.02581    0.04880    0.00080      0.05218      0.01233      0.00000      0.00000      0.00000      
50200   0.13178    0.02581    0.04879    0.00080      0.05218      0.01234      0.00000      0.00000      0.00000      
50300   0.13177    0.02581    0.04879    0.00080      0.05218      0.01236      0.00000      0.00000      0.00000      
50400   0.13177    0.02581    0.04879    0.00080      0.05218      0.01234      0.00000      0.00000      0.00000      
50500   0.13177    0.02581    0.04879    0.00080      0.05218      0.01235      0.00000      0.00000      0.00000      
50600   0.13176    0.02581    0.04879    0.00080      0.05218      0.01235      0.00000      0.00000      0.00000      
50700   0.13176    0.02581    0.04878    0.00080      0.05217      0.01235      0.00000      0.00000      0.00000      
50800   0.13176    0.02580    0.04878    0.00080      0.05217      0.01235      0.00000      0.00000      0.00000      
50900   0.13175    0.02580    0.04878    0.00080      0.05217      0.01233      0.00000      0.00000      0.00000      
51000   0.13175    0.02580    0.04878    0.00080      0.05217      0.01234      0.00000      0.00000      0.00000      
51100   0.13174    0.02580    0.04878    0.00080      0.05217      0.01236      0.00000      0.00000      0.00000      
51200   0.13174    0.02580    0.04877    0.00080      0.05217      0.01233      0.00000      0.00000      0.00000      
51300   0.13173    0.02580    0.04877    0.00080      0.05217      0.01233      0.00000      0.00000      0.00000      
51400   0.13173    0.02580    0.04877    0.00080      0.05217      0.01236      0.00000      0.00000      0.00000      
51500   0.13173    0.02580    0.04877    0.00080      0.05217      0.01237      0.00000      0.00000      0.00000      
51600   0.13172    0.02579    0.04877    0.00080      0.05217      0.01238      0.00000      0.00000      0.00000      
51700   0.13172    0.02579    0.04876    0.00080      0.05216      0.01236      0.00000      0.00000      0.00000      
51800   0.13171    0.02579    0.04876    0.00080      0.05216      0.01237      0.00000      0.00000      0.00000      
51900   0.13171    0.02579    0.04876    0.00080      0.05216      0.01236      0.00000      0.00000      0.00000      
52000   0.13170    0.02579    0.04876    0.00080      0.05216      0.01237      0.00000      0.00000      0.00000      
52100   0.13170    0.02579    0.04876    0.00080      0.05216      0.01235      0.00000      0.00000      0.00000      
52200   0.13169    0.02579    0.04875    0.00080      0.05216      0.01235      0.00000      0.00000      0.00000      
52300   0.13169    0.02579    0.04875    0.00079      0.05216      0.01236      0.00000      0.00000      0.00000      
52400   0.13168    0.02578    0.04875    0.00080      0.05216      0.01237      0.00000      0.00000      0.00000      
52500   0.13168    0.02578    0.04875    0.00080      0.05216      0.01236      0.00000      0.00000      0.00000      
52600   0.13168    0.02578    0.04875    0.00080      0.05216      0.01237      0.00000      0.00000      0.00000      
52700   0.13167    0.02578    0.04874    0.00080      0.05215      0.01236      0.00000      0.00000      0.00000      
52800   0.13167    0.02578    0.04874    0.00080      0.05216      0.01236      0.00000      0.00000      0.00000      
52900   0.13166    0.02578    0.04874    0.00080      0.05215      0.01237      0.00000      0.00000      0.00000      
53000   0.13166    0.02578    0.04874    0.00080      0.05215      0.01238      0.00000      0.00000      0.00000      
53100   0.13165    0.02578    0.04874    0.00080      0.05215      0.01236      0.00000      0.00000      0.00000      
53200   0.13165    0.02577    0.04873    0.00080      0.05215      0.01238      0.00000      0.00000      0.00000      
53300   0.13165    0.02577    0.04873    0.00080      0.05215      0.01237      0.00000      0.00000      0.00000      
53400   0.13164    0.02577    0.04873    0.00080      0.05215      0.01236      0.00000      0.00000      0.00000      
53500   0.13164    0.02577    0.04873    0.00080      0.05215      0.01237      0.00000      0.00000      0.00000      
53600   0.13163    0.02577    0.04873    0.00080      0.05214      0.01236      0.00000      0.00000      0.00000      
53700   0.13163    0.02577    0.04872    0.00080      0.05214      0.01239      0.00000      0.00000      0.00000      
53800   0.13163    0.02577    0.04872    0.00079      0.05214      0.01238      0.00000      0.00000      0.00000      
53900   0.13162    0.02577    0.04872    0.00079      0.05214      0.01237      0.00000      0.00000      0.00000      
54000   0.13162    0.02576    0.04872    0.00080      0.05214      0.01234      0.00000      0.00000      0.00000      
54100   0.13161    0.02576    0.04872    0.00080      0.05214      0.01233      0.00000      0.00000      0.00000      
54200   0.13161    0.02576    0.04872    0.00080      0.05214      0.01234      0.00000      0.00000      0.00000      
54300   0.13161    0.02576    0.04871    0.00079      0.05214      0.01235      0.00000      0.00000      0.00000      
54400   0.13161    0.02576    0.04871    0.00079      0.05214      0.01235      0.00000      0.00000      0.00000      
54500   0.13160    0.02576    0.04871    0.00079      0.05214      0.01236      0.00000      0.00000      0.00000      
54600   0.13160    0.02576    0.04871    0.00079      0.05214      0.01236      0.00000      0.00000      0.00000      
54700   0.13159    0.02576    0.04871    0.00079      0.05213      0.01237      0.00000      0.00000      0.00000      
54800   0.13158    0.02576    0.04870    0.00079      0.05213      0.01237      0.00000      0.00000      0.00000      
54900   0.13158    0.02576    0.04870    0.00079      0.05213      0.01238      0.00000      0.00000      0.00000      
55000   0.13158    0.02576    0.04870    0.00080      0.05213      0.01236      0.00000      0.00000      0.00000      
55100   0.13157    0.02575    0.04870    0.00079      0.05213      0.01237      0.00000      0.00000      0.00000      
55200   0.13157    0.02575    0.04870    0.00080      0.05213      0.01236      0.00000      0.00000      0.00000      
55300   0.13156    0.02575    0.04869    0.00080      0.05212      0.01235      0.00000      0.00000      0.00000      
55400   0.13155    0.02575    0.04869    0.00079      0.05212      0.01239      0.00000      0.00000      0.00000      
55500   0.13155    0.02575    0.04869    0.00079      0.05212      0.01237      0.00000      0.00000      0.00000      
55600   0.13154    0.02575    0.04869    0.00080      0.05212      0.01237      0.00000      0.00000      0.00000      
55700   0.13154    0.02575    0.04869    0.00079      0.05212      0.01238      0.00000      0.00000      0.00000      
55800   0.13154    0.02574    0.04869    0.00079      0.05212      0.01236      0.00000      0.00000      0.00000      
55900   0.13153    0.02574    0.04868    0.00080      0.05212      0.01235      0.00000      0.00000      0.00000      
56000   0.13153    0.02574    0.04868    0.00080      0.05212      0.01237      0.00000      0.00000      0.00000      
56100   0.13153    0.02574    0.04868    0.00079      0.05212      0.01239      0.00000      0.00000      0.00000      
56200   0.13152    0.02574    0.04868    0.00079      0.05212      0.01238      0.00000      0.00000      0.00000      
56300   0.13152    0.02574    0.04868    0.00080      0.05211      0.01238      0.00000      0.00000      0.00000      
56400   0.13152    0.02574    0.04868    0.00080      0.05211      0.01237      0.00000      0.00000      0.00000      
56500   0.13151    0.02574    0.04867    0.00079      0.05211      0.01239      0.00000      0.00000      0.00000      
56600   0.13151    0.02574    0.04867    0.00080      0.05211      0.01237      0.00000      0.00000      0.00000      
56700   0.13151    0.02574    0.04867    0.00080      0.05211      0.01236      0.00000      0.00000      0.00000      
56800   0.13150    0.02573    0.04867    0.00079      0.05211      0.01238      0.00000      0.00000      0.00000      
56900   0.13149    0.02573    0.04867    0.00079      0.05211      0.01237      0.00000      0.00000      0.00000      
57000   0.13149    0.02573    0.04866    0.00079      0.05211      0.01236      0.00000      0.00000      0.00000      
57100   0.13149    0.02573    0.04866    0.00079      0.05210      0.01237      0.00000      0.00000      0.00000      
57200   0.13148    0.02573    0.04866    0.00080      0.05210      0.01237      0.00000      0.00000      0.00000      
57300   0.13148    0.02573    0.04866    0.00080      0.05210      0.01236      0.00000      0.00000      0.00000      
57400   0.13147    0.02573    0.04866    0.00079      0.05210      0.01237      0.00000      0.00000      0.00000      
57500   0.13147    0.02572    0.04866    0.00080      0.05210      0.01236      0.00000      0.00000      0.00000      
57600   0.13146    0.02572    0.04865    0.00080      0.05210      0.01236      0.00000      0.00000      0.00000      
57700   0.13146    0.02572    0.04865    0.00080      0.05210      0.01236      0.00000      0.00000      0.00000      
57800   0.13146    0.02572    0.04865    0.00079      0.05210      0.01237      0.00000      0.00000      0.00000      
57900   0.13145    0.02572    0.04865    0.00079      0.05210      0.01236      0.00000      0.00000      0.00000      
58000   0.13145    0.02572    0.04865    0.00079      0.05210      0.01236      0.00000      0.00000      0.00000      
58100   0.13144    0.02572    0.04864    0.00079      0.05210      0.01237      0.00000      0.00000      0.00000      
58200   0.13144    0.02571    0.04864    0.00079      0.05209      0.01237      0.00000      0.00000      0.00000      
58300   0.13144    0.02571    0.04864    0.00080      0.05209      0.01235      0.00000      0.00000      0.00000      
58400   0.13143    0.02571    0.04864    0.00079      0.05209      0.01235      0.00000      0.00000      0.00000      
58500   0.13143    0.02571    0.04864    0.00080      0.05209      0.01236      0.00000      0.00000      0.00000      
58600   0.13142    0.02571    0.04864    0.00079      0.05209      0.01235      0.00000      0.00000      0.00000      
58700   0.13142    0.02571    0.04863    0.00079      0.05209      0.01237      0.00000      0.00000      0.00000      
58800   0.13142    0.02571    0.04863    0.00079      0.05209      0.01236      0.00000      0.00000      0.00000      
58900   0.13141    0.02571    0.04863    0.00079      0.05209      0.01234      0.00000      0.00000      0.00000      
59000   0.13141    0.02571    0.04863    0.00079      0.05209      0.01234      0.00000      0.00000      0.00000      
59100   0.13141    0.02570    0.04863    0.00079      0.05209      0.01232      0.00000      0.00000      0.00000      
59200   0.13140    0.02570    0.04863    0.00079      0.05209      0.01232      0.00000      0.00000      0.00000      
59300   0.13140    0.02570    0.04862    0.00080      0.05209      0.01232      0.00000      0.00000      0.00000      
59400   0.13140    0.02570    0.04862    0.00079      0.05209      0.01232      0.00000      0.00000      0.00000      
59500   0.13139    0.02570    0.04862    0.00079      0.05209      0.01233      0.00000      0.00000      0.00000      
59600   0.13139    0.02570    0.04862    0.00079      0.05208      0.01234      0.00000      0.00000      0.00000      
59700   0.13138    0.02570    0.04862    0.00079      0.05208      0.01233      0.00000      0.00000      0.00000      
59800   0.13138    0.02570    0.04862    0.00079      0.05208      0.01231      0.00000      0.00000      0.00000      
59900   0.13137    0.02570    0.04861    0.00079      0.05208      0.01232      0.00000      0.00000      0.00000      
60000   0.13137    0.02569    0.04861    0.00079      0.05208      0.01231      0.00000      0.00000      0.00000      
60100   0.13137    0.02569    0.04861    0.00079      0.05208      0.01232      0.00000      0.00000      0.00000      
60200   0.13137    0.02569    0.04861    0.00079      0.05208      0.01233      0.00000      0.00000      0.00000      
60300   0.13136    0.02569    0.04861    0.00079      0.05208      0.01231      0.00000      0.00000      0.00000      
60400   0.13136    0.02569    0.04861    0.00079      0.05208      0.01232      0.00000      0.00000      0.00000      
60500   0.13135    0.02569    0.04860    0.00079      0.05207      0.01234      0.00000      0.00000      0.00000      
60600   0.13135    0.02569    0.04860    0.00079      0.05207      0.01234      0.00000      0.00000      0.00000      
60700   0.13134    0.02569    0.04860    0.00079      0.05207      0.01235      0.00000      0.00000      0.00000      
60800   0.13134    0.02569    0.04860    0.00079      0.05207      0.01234      0.00000      0.00000      0.00000      
60900   0.13134    0.02568    0.04860    0.00079      0.05207      0.01234      0.00000      0.00000      0.00000      
61000   0.13133    0.02568    0.04860    0.00079      0.05207      0.01235      0.00000      0.00000      0.00000      
61100   0.13132    0.02568    0.04859    0.00080      0.05207      0.01231      0.00000      0.00000      0.00000      
61200   0.13132    0.02568    0.04859    0.00080      0.05207      0.01232      0.00000      0.00000      0.00000      
61300   0.13132    0.02568    0.04859    0.00079      0.05207      0.01232      0.00000      0.00000      0.00000      
61400   0.13132    0.02568    0.04859    0.00080      0.05207      0.01232      0.00000      0.00000      0.00000      
61500   0.13131    0.02567    0.04859    0.00080      0.05207      0.01231      0.00000      0.00000      0.00000      
61600   0.13131    0.02567    0.04859    0.00079      0.05207      0.01231      0.00000      0.00000      0.00000      
61700   0.13130    0.02567    0.04858    0.00080      0.05207      0.01232      0.00000      0.00000      0.00000      
61800   0.13130    0.02567    0.04858    0.00080      0.05206      0.01233      0.00000      0.00000      0.00000      
61900   0.13130    0.02567    0.04858    0.00080      0.05206      0.01234      0.00000      0.00000      0.00000      
62000   0.13129    0.02567    0.04858    0.00080      0.05206      0.01233      0.00000      0.00000      0.00000      
62100   0.13129    0.02567    0.04858    0.00080      0.05206      0.01232      0.00000      0.00000      0.00000      
62200   0.13128    0.02567    0.04857    0.00079      0.05206      0.01233      0.00000      0.00000      0.00000      
62300   0.13128    0.02566    0.04857    0.00080      0.05206      0.01233      0.00000      0.00000      0.00000      
62400   0.13127    0.02566    0.04857    0.00080      0.05206      0.01232      0.00000      0.00000      0.00000      
62500   0.13127    0.02566    0.04857    0.00080      0.05206      0.01234      0.00000      0.00000      0.00000      
62600   0.13127    0.02566    0.04857    0.00080      0.05205      0.01234      0.00000      0.00000      0.00000      
62700   0.13126    0.02566    0.04856    0.00079      0.05205      0.01234      0.00000      0.00000      0.00000      
62800   0.13126    0.02566    0.04856    0.00079      0.05205      0.01234      0.00000      0.00000      0.00000      
62900   0.13125    0.02566    0.04856    0.00079      0.05205      0.01233      0.00000      0.00000      0.00000      
63000   0.13125    0.02566    0.04856    0.00079      0.05205      0.01235      0.00000      0.00000      0.00000      
63100   0.13124    0.02565    0.04856    0.00080      0.05205      0.01232      0.00000      0.00000      0.00000      
63200   0.13124    0.02565    0.04855    0.00079      0.05205      0.01234      0.00000      0.00000      0.00000      
63300   0.13123    0.02565    0.04855    0.00080      0.05205      0.01233      0.00000      0.00000      0.00000      
[...]
183800  0.12796    0.02470    0.04710    0.00079      0.05124      0.01214      0.00000      0.00000      0.00000      
183900  0.12796    0.02470    0.04710    0.00079      0.05124      0.01214      0.00000      0.00000      0.00000      
184000  0.12796    0.02470    0.04709    0.00079      0.05124      0.01215      0.00000      0.00000      0.00000      
184100  0.12796    0.02470    0.04709    0.00079      0.05124      0.01215      0.00000      0.00000      0.00000      
184200  0.12796    0.02470    0.04709    0.00079      0.05124      0.01215      0.00000      0.00000      0.00000      
184300  0.12796    0.02470    0.04709    0.00079      0.05124      0.01214      0.00000      0.00000      0.00000      
184400  0.12796    0.02470    0.04709    0.00079      0.05124      0.01213      0.00000      0.00000      0.00000      
184500  0.12795    0.02470    0.04709    0.00079      0.05124      0.01214      0.00000      0.00000      0.00000      
184600  0.12795    0.02470    0.04709    0.00079      0.05124      0.01214      0.00000      0.00000      0.00000      
184700  0.12795    0.02470    0.04709    0.00079      0.05124      0.01214      0.00000      0.00000      0.00000      
184800  0.12795    0.02470    0.04709    0.00079      0.05124      0.01213      0.00000      0.00000      0.00000      
184900  0.12795    0.02470    0.04709    0.00079      0.05124      0.01213      0.00000      0.00000      0.00000      
185000  0.12795    0.02470    0.04709    0.00079      0.05123      0.01213      0.00000      0.00000      0.00000      
185100  0.12795    0.02470    0.04709    0.00079      0.05123      0.01213      0.00000      0.00000      0.00000      
185200  0.12794    0.02470    0.04709    0.00079      0.05123      0.01213      0.00000      0.00000      0.00000      
185300  0.12794    0.02470    0.04709    0.00079      0.05123      0.01215      0.00000      0.00000      0.00000      
185400  0.12794    0.02470    0.04709    0.00079      0.05123      0.01214      0.00000      0.00000      0.00000      
185500  0.12794    0.02470    0.04709    0.00079      0.05123      0.01213      0.00000      0.00000      0.00000      
185600  0.12794    0.02470    0.04708    0.00079      0.05123      0.01214      0.00000      0.00000      0.00000      
185700  0.12793    0.02470    0.04708    0.00079      0.05123      0.01214      0.00000      0.00000      0.00000      
185800  0.12793    0.02470    0.04708    0.00079      0.05123      0.01213      0.00000      0.00000      0.00000      
185900  0.12793    0.02470    0.04708    0.00079      0.05123      0.01214      0.00000      0.00000      0.00000      
186000  0.12793    0.02470    0.04708    0.00079      0.05123      0.01214      0.00000      0.00000      0.00000      
186100  0.12793    0.02470    0.04708    0.00079      0.05123      0.01213      0.00000      0.00000      0.00000      
186200  0.12793    0.02470    0.04708    0.00079      0.05123      0.01215      0.00000      0.00000      0.00000      
186300  0.12792    0.02469    0.04708    0.00079      0.05123      0.01213      0.00000      0.00000      0.00000      
186400  0.12792    0.02469    0.04708    0.00079      0.05123      0.01215      0.00000      0.00000      0.00000      
186500  0.12792    0.02469    0.04708    0.00079      0.05123      0.01215      0.00000      0.00000      0.00000      
186600  0.12792    0.02469    0.04708    0.00079      0.05122      0.01214      0.00000      0.00000      0.00000      
186700  0.12792    0.02469    0.04708    0.00079      0.05122      0.01214      0.00000      0.00000      0.00000      
186800  0.12792    0.02469    0.04708    0.00080      0.05122      0.01214      0.00000      0.00000      0.00000      
186900  0.12792    0.02469    0.04708    0.00079      0.05122      0.01215      0.00000      0.00000      0.00000      
187000  0.12791    0.02469    0.04708    0.00079      0.05122      0.01214      0.00000      0.00000      0.00000      
187100  0.12791    0.02469    0.04708    0.00079      0.05122      0.01215      0.00000      0.00000      0.00000      
187200  0.12791    0.02469    0.04707    0.00079      0.05122      0.01214      0.00000      0.00000      0.00000      
187300  0.12791    0.02469    0.04707    0.00079      0.05122      0.01215      0.00000      0.00000      0.00000      
187400  0.12791    0.02469    0.04707    0.00079      0.05122      0.01215      0.00000      0.00000      0.00000      
187500  0.12791    0.02469    0.04707    0.00079      0.05122      0.01216      0.00000      0.00000      0.00000      
187600  0.12791    0.02469    0.04707    0.00079      0.05122      0.01216      0.00000      0.00000      0.00000      
187700  0.12791    0.02469    0.04707    0.00079      0.05122      0.01216      0.00000      0.00000      0.00000      
187800  0.12790    0.02469    0.04707    0.00079      0.05122      0.01216      0.00000      0.00000      0.00000      
187900  0.12790    0.02469    0.04707    0.00079      0.05122      0.01216      0.00000      0.00000      0.00000      
188000  0.12790    0.02469    0.04707    0.00079      0.05122      0.01216      0.00000      0.00000      0.00000      
188100  0.12790    0.02469    0.04707    0.00079      0.05122      0.01215      0.00000      0.00000      0.00000      
188200  0.12790    0.02469    0.04707    0.00079      0.05122      0.01215      0.00000      0.00000      0.00000      
188300  0.12790    0.02469    0.04707    0.00079      0.05122      0.01215      0.00000      0.00000      0.00000      
188400  0.12789    0.02469    0.04707    0.00079      0.05122      0.01214      0.00000      0.00000      0.00000      
188500  0.12789    0.02469    0.04707    0.00079      0.05122      0.01214      0.00000      0.00000      0.00000      
188600  0.12789    0.02469    0.04707    0.00079      0.05122      0.01214      0.00000      0.00000      0.00000      
188700  0.12789    0.02468    0.04706    0.00079      0.05122      0.01215      0.00000      0.00000      0.00000      
188800  0.12789    0.02468    0.04706    0.00079      0.05122      0.01214      0.00000      0.00000      0.00000      
188900  0.12789    0.02468    0.04706    0.00079      0.05121      0.01215      0.00000      0.00000      0.00000      
189000  0.12788    0.02468    0.04706    0.00079      0.05121      0.01215      0.00000      0.00000      0.00000      
189100  0.12788    0.02468    0.04706    0.00079      0.05121      0.01215      0.00000      0.00000      0.00000      
189200  0.12788    0.02468    0.04706    0.00079      0.05121      0.01215      0.00000      0.00000      0.00000      
189300  0.12788    0.02468    0.04706    0.00079      0.05121      0.01215      0.00000      0.00000      0.00000      
189400  0.12788    0.02468    0.04706    0.00079      0.05121      0.01215      0.00000      0.00000      0.00000      
189500  0.12788    0.02468    0.04706    0.00079      0.05121      0.01216      0.00000      0.00000      0.00000      
189600  0.12787    0.02468    0.04706    0.00079      0.05121      0.01215      0.00000      0.00000      0.00000      
189700  0.12787    0.02468    0.04706    0.00079      0.05121      0.01215      0.00000      0.00000      0.00000      
189800  0.12787    0.02468    0.04706    0.00079      0.05121      0.01216      0.00000      0.00000      0.00000      
189900  0.12787    0.02468    0.04706    0.00079      0.05121      0.01215      0.00000      0.00000      0.00000      
190000  0.12787    0.02468    0.04706    0.00079      0.05121      0.01216      0.00000      0.00000      0.00000      
190100  0.12787    0.02468    0.04706    0.00079      0.05121      0.01216      0.00000      0.00000      0.00000      
190200  0.12787    0.02468    0.04706    0.00079      0.05121      0.01216      0.00000      0.00000      0.00000      
190300  0.12786    0.02468    0.04705    0.00079      0.05121      0.01216      0.00000      0.00000      0.00000      
190400  0.12786    0.02468    0.04705    0.00079      0.05121      0.01216      0.00000      0.00000      0.00000      
190500  0.12786    0.02468    0.04705    0.00079      0.05121      0.01216      0.00000      0.00000      0.00000      
190600  0.12786    0.02468    0.04705    0.00079      0.05121      0.01215      0.00000      0.00000      0.00000      
190700  0.12786    0.02468    0.04705    0.00079      0.05121      0.01214      0.00000      0.00000      0.00000      
190800  0.12785    0.02468    0.04705    0.00079      0.05120      0.01216      0.00000      0.00000      0.00000      
190900  0.12785    0.02467    0.04705    0.00079      0.05120      0.01216      0.00000      0.00000      0.00000      
191000  0.12785    0.02467    0.04705    0.00079      0.05120      0.01214      0.00000      0.00000      0.00000      
191100  0.12785    0.02467    0.04705    0.00079      0.05120      0.01215      0.00000      0.00000      0.00000      
191200  0.12785    0.02467    0.04705    0.00079      0.05120      0.01214      0.00000      0.00000      0.00000      
191300  0.12785    0.02467    0.04705    0.00079      0.05120      0.01215      0.00000      0.00000      0.00000      
191400  0.12785    0.02467    0.04705    0.00079      0.05120      0.01216      0.00000      0.00000      0.00000      
191500  0.12784    0.02467    0.04705    0.00079      0.05120      0.01216      0.00000      0.00000      0.00000      
191600  0.12784    0.02467    0.04705    0.00079      0.05120      0.01217      0.00000      0.00000      0.00000      
191700  0.12784    0.02467    0.04705    0.00079      0.05120      0.01216      0.00000      0.00000      0.00000      
191800  0.12784    0.02467    0.04705    0.00079      0.05120      0.01215      0.00000      0.00000      0.00000      
191900  0.12784    0.02467    0.04704    0.00079      0.05120      0.01215      0.00000      0.00000      0.00000      
192000  0.12784    0.02467    0.04704    0.00079      0.05120      0.01215      0.00000      0.00000      0.00000      
192100  0.12783    0.02467    0.04704    0.00079      0.05120      0.01215      0.00000      0.00000      0.00000      
192200  0.12783    0.02467    0.04704    0.00079      0.05120      0.01216      0.00000      0.00000      0.00000      
192300  0.12783    0.02467    0.04704    0.00079      0.05120      0.01216      0.00000      0.00000      0.00000      
192400  0.12783    0.02467    0.04704    0.00079      0.05120      0.01215      0.00000      0.00000      0.00000      
192500  0.12783    0.02467    0.04704    0.00079      0.05120      0.01217      0.00000      0.00000      0.00000      
192600  0.12783    0.02467    0.04704    0.00079      0.05120      0.01217      0.00000      0.00000      0.00000      
192700  0.12782    0.02467    0.04704    0.00079      0.05120      0.01215      0.00000      0.00000      0.00000      
192800  0.12783    0.02467    0.04704    0.00079      0.05120      0.01216      0.00000      0.00000      0.00000      
192900  0.12782    0.02467    0.04704    0.00079      0.05120      0.01216      0.00000      0.00000      0.00000      
193000  0.12782    0.02467    0.04704    0.00079      0.05120      0.01216      0.00000      0.00000      0.00000      
193100  0.12782    0.02467    0.04704    0.00079      0.05120      0.01215      0.00000      0.00000      0.00000      
193200  0.12782    0.02467    0.04704    0.00079      0.05119      0.01215      0.00000      0.00000      0.00000      
193300  0.12782    0.02466    0.04703    0.00079      0.05119      0.01215      0.00000      0.00000      0.00000      
193400  0.12782    0.02466    0.04703    0.00079      0.05119      0.01215      0.00000      0.00000      0.00000      
193500  0.12781    0.02466    0.04703    0.00079      0.05119      0.01215      0.00000      0.00000      0.00000      
193600  0.12781    0.02466    0.04703    0.00079      0.05119      0.01216      0.00000      0.00000      0.00000      
193700  0.12781    0.02466    0.04703    0.00079      0.05119      0.01216      0.00000      0.00000      0.00000      
193800  0.12781    0.02466    0.04703    0.00079      0.05119      0.01216      0.00000      0.00000      0.00000      
193900  0.12781    0.02466    0.04703    0.00079      0.05119      0.01216      0.00000      0.00000      0.00000      
194000  0.12781    0.02466    0.04703    0.00079      0.05119      0.01215      0.00000      0.00000      0.00000      
194100  0.12781    0.02466    0.04703    0.00079      0.05119      0.01214      0.00000      0.00000      0.00000      
194200  0.12780    0.02466    0.04703    0.00079      0.05119      0.01214      0.00000      0.00000      0.00000      
194300  0.12780    0.02466    0.04703    0.00079      0.05119      0.01214      0.00000      0.00000      0.00000      
194400  0.12780    0.02466    0.04703    0.00079      0.05119      0.01215      0.00000      0.00000      0.00000      
194500  0.12780    0.02466    0.04703    0.00079      0.05119      0.01215      0.00000      0.00000      0.00000      
194600  0.12780    0.02466    0.04703    0.00079      0.05119      0.01213      0.00000      0.00000      0.00000      
194700  0.12780    0.02466    0.04703    0.00079      0.05119      0.01213      0.00000      0.00000      0.00000      
194800  0.12780    0.02466    0.04703    0.00079      0.05119      0.01213      0.00000      0.00000      0.00000      
194900  0.12780    0.02466    0.04703    0.00079      0.05119      0.01214      0.00000      0.00000      0.00000      
195000  0.12780    0.02466    0.04703    0.00079      0.05119      0.01213      0.00000      0.00000      0.00000      
195100  0.12779    0.02466    0.04703    0.00079      0.05119      0.01213      0.00000      0.00000      0.00000      
195200  0.12779    0.02466    0.04702    0.00079      0.05119      0.01213      0.00000      0.00000      0.00000      
195300  0.12779    0.02466    0.04702    0.00079      0.05119      0.01214      0.00000      0.00000      0.00000      
195400  0.12779    0.02466    0.04702    0.00079      0.05119      0.01213      0.00000      0.00000      0.00000      
195500  0.12779    0.02466    0.04702    0.00079      0.05119      0.01213      0.00000      0.00000      0.00000      
195600  0.12779    0.02466    0.04702    0.00079      0.05119      0.01213      0.00000      0.00000      0.00000      
195700  0.12779    0.02465    0.04702    0.00079      0.05119      0.01214      0.00000      0.00000      0.00000      
195800  0.12778    0.02465    0.04702    0.00079      0.05119      0.01213      0.00000      0.00000      0.00000      
195900  0.12778    0.02465    0.04702    0.00079      0.05119      0.01212      0.00000      0.00000      0.00000      
196000  0.12778    0.02465    0.04702    0.00079      0.05119      0.01213      0.00000      0.00000      0.00000      
196100  0.12778    0.02465    0.04702    0.00079      0.05119      0.01212      0.00000      0.00000      0.00000      
196200  0.12778    0.02465    0.04702    0.00079      0.05119      0.01213      0.00000      0.00000      0.00000      
196300  0.12778    0.02465    0.04702    0.00079      0.05119      0.01212      0.00000      0.00000      0.00000      
196400  0.12777    0.02465    0.04702    0.00079      0.05119      0.01212      0.00000      0.00000      0.00000      
196500  0.12777    0.02465    0.04702    0.00079      0.05118      0.01212      0.00000      0.00000      0.00000      
196600  0.12777    0.02465    0.04702    0.00079      0.05118      0.01213      0.00000      0.00000      0.00000      
196700  0.12777    0.02465    0.04702    0.00079      0.05118      0.01212      0.00000      0.00000      0.00000      
196800  0.12777    0.02465    0.04701    0.00079      0.05118      0.01213      0.00000      0.00000      0.00000      
196900  0.12777    0.02465    0.04701    0.00079      0.05118      0.01211      0.00000      0.00000      0.00000      
197000  0.12776    0.02465    0.04701    0.00079      0.05118      0.01212      0.00000      0.00000      0.00000      
197100  0.12776    0.02465    0.04701    0.00079      0.05118      0.01212      0.00000      0.00000      0.00000      
197200  0.12776    0.02465    0.04701    0.00079      0.05118      0.01212      0.00000      0.00000      0.00000      
197300  0.12776    0.02465    0.04701    0.00079      0.05118      0.01212      0.00000      0.00000      0.00000      
197400  0.12776    0.02465    0.04701    0.00079      0.05118      0.01211      0.00000      0.00000      0.00000      
197500  0.12776    0.02465    0.04701    0.00079      0.05118      0.01211      0.00000      0.00000      0.00000      
197600  0.12776    0.02465    0.04701    0.00079      0.05118      0.01212      0.00000      0.00000      0.00000      
197700  0.12776    0.02465    0.04701    0.00079      0.05118      0.01211      0.00000      0.00000      0.00000      
197800  0.12776    0.02465    0.04701    0.00079      0.05118      0.01211      0.00000      0.00000      0.00000      
197900  0.12775    0.02465    0.04701    0.00079      0.05118      0.01211      0.00000      0.00000      0.00000      
198000  0.12775    0.02464    0.04701    0.00079      0.05118      0.01211      0.00000      0.00000      0.00000      
198100  0.12775    0.02464    0.04701    0.00079      0.05118      0.01212      0.00000      0.00000      0.00000      
198200  0.12775    0.02464    0.04701    0.00079      0.05118      0.01211      0.00000      0.00000      0.00000      
198300  0.12775    0.02464    0.04701    0.00079      0.05118      0.01211      0.00000      0.00000      0.00000      
198400  0.12775    0.02464    0.04701    0.00079      0.05118      0.01212      0.00000      0.00000      0.00000      
198500  0.12775    0.02464    0.04700    0.00079      0.05118      0.01212      0.00000      0.00000      0.00000      
198600  0.12774    0.02464    0.04700    0.00079      0.05118      0.01212      0.00000      0.00000      0.00000      
198700  0.12774    0.02464    0.04700    0.00079      0.05118      0.01212      0.00000      0.00000      0.00000      
198800  0.12774    0.02464    0.04700    0.00079      0.05118      0.01212      0.00000      0.00000      0.00000      
198900  0.12774    0.02464    0.04700    0.00079      0.05118      0.01212      0.00000      0.00000      0.00000      
199000  0.12774    0.02464    0.04700    0.00079      0.05117      0.01212      0.00000      0.00000      0.00000      
199100  0.12774    0.02464    0.04700    0.00079      0.05118      0.01212      0.00000      0.00000      0.00000      
199200  0.12774    0.02464    0.04700    0.00079      0.05118      0.01212      0.00000      0.00000      0.00000      
199300  0.12774    0.02464    0.04700    0.00079      0.05117      0.01213      0.00000      0.00000      0.00000      
199400  0.12773    0.02464    0.04700    0.00079      0.05117      0.01213      0.00000      0.00000      0.00000      
199500  0.12773    0.02464    0.04700    0.00079      0.05117      0.01211      0.00000      0.00000      0.00000      
199600  0.12773    0.02464    0.04700    0.00079      0.05117      0.01212      0.00000      0.00000      0.00000      
199700  0.12773    0.02464    0.04700    0.00079      0.05117      0.01213      0.00000      0.00000      0.00000      
199800  0.12773    0.02464    0.04700    0.00079      0.05117      0.01213      0.00000      0.00000      0.00000      
199900  0.12773    0.02464    0.04700    0.00079      0.05117      0.01210      0.00000      0.00000      0.00000      
200000  0.12772    0.02464    0.04700    0.00079      0.05117      0.01211      0.00000      0.00000      0.00000      

---------------------------------------------------------------
Time used for training = 264279.656250 s.
---------------------------------------------------------------


---------------------------------------------------------------
Finished running nep.
---------------------------------------------------------------

