ITEM: TIMESTEP
0
ITEM: NUMBER OF ATOMS
4320
ITEM: BOX BOUNDS xy xz yz pp pp pp
0.0000000000000000e+00 2.2346571338400000e+01 7.4488495133999999e+00
0.0000000000000000e+00 1.2902318903999999e+01 0.0000000000000000e+00
0.0000000000000000e+00 2.1376800000000000e+02 0.0000000000000000e+00
ITEM: ATOMS id type x y z
2 2 1.24147 0.720373 2.78161
721 2 2.48295 0.0035746 2.78173
722 2 3.72442 0.720373 2.78161
4 3 1.24148 0.71314 6.34436
6 2 1.24147 0.720373 9.90721
724 3 3.72444 0.71314 6.34436
725 2 2.48295 0.0035746 9.90733
726 2 3.72442 0.720373 9.90721
8 3 1.24148 0.71314 13.47
728 3 3.72444 0.71314 13.47
10 2 1.24147 0.720373 17.0328
729 2 2.48295 0.0035746 17.0329
730 2 3.72442 0.720373 17.0328
12 3 1.24148 0.71314 20.5956
14 2 1.24147 0.720373 24.1584
732 3 3.72444 0.71314 20.5956
733 2 2.48295 0.0035746 24.1585
734 2 3.72442 0.720373 24.1584
16 3 1.24148 0.71314 27.7212
736 3 3.72444 0.71314 27.7212
18 2 1.24147 0.720373 31.284
20 3 1.24148 0.71314 34.8468
737 2 2.48295 0.0035746 31.2841
738 2 3.72442 0.720373 31.284
740 3 3.72444 0.71314 34.8468
22 2 1.24147 0.720373 38.4096
741 2 2.48295 0.0035746 38.4097
742 2 3.72442 0.720373 38.4096
24 3 1.24148 0.71314 41.9724
26 2 1.24147 0.720373 45.5352
744 3 3.72444 0.71314 41.9724
745 2 2.48295 0.0035746 45.5353
746 2 3.72442 0.720373 45.5352
28 3 1.24148 0.71314 49.098
748 3 3.72444 0.71314 49.098
30 2 1.24147 0.720373 52.6608
749 2 2.48295 0.0035746 52.6609
750 2 3.72442 0.720373 52.6608
32 3 1.24148 0.71314 56.2236
34 2 1.24147 0.720373 59.7864
752 3 3.72444 0.71314 56.2236
753 2 2.48295 0.0035746 59.7865
754 2 3.72442 0.720373 59.7864
36 3 1.24148 0.71314 63.3492
756 3 3.72444 0.71314 63.3492
38 2 1.24147 0.720373 66.912
40 3 1.24148 0.71314 70.4748
757 2 2.48295 0.0035746 66.9121
758 2 3.72442 0.720373 66.912
760 3 3.72444 0.71314 70.4748
42 2 1.24147 0.720373 74.0376
761 2 2.48295 0.0035746 74.0377
762 2 3.72442 0.720373 74.0376
44 3 1.24148 0.71314 77.6004
46 2 1.24147 0.720373 81.1632
764 3 3.72444 0.71314 77.6004
765 2 2.48295 0.0035746 81.1633
766 2 3.72442 0.720373 81.1632
48 3 1.24148 0.71314 84.726
768 3 3.72444 0.71314 84.726
50 2 1.24147 0.720373 88.2888
769 2 2.48295 0.0035746 88.2889
770 2 3.72442 0.720373 88.2888
52 3 1.24148 0.71314 91.8516
54 2 1.24147 0.720373 95.4144
772 3 3.72444 0.71314 91.8516
773 2 2.48295 0.0035746 95.4145
774 2 3.72442 0.720373 95.4144
56 3 1.24148 0.71314 98.9772
776 3 3.72444 0.71314 98.9772
58 2 1.24147 0.720373 102.54
60 3 1.24148 0.71314 106.103
777 2 2.48295 0.0035746 102.54
778 2 3.72442 0.720373 102.54
780 3 3.72444 0.71314 106.103
62 2 1.24147 0.720373 109.666
781 2 2.48295 0.0035746 109.666
782 2 3.72442 0.720373 109.666
64 3 1.24148 0.71314 113.228
66 2 1.24147 0.720373 116.791
784 3 3.72444 0.71314 113.228
785 2 2.48295 0.0035746 116.791
786 2 3.72442 0.720373 116.791
68 3 1.24148 0.71314 120.354
788 3 3.72444 0.71314 120.354
70 2 1.24147 0.720373 123.917
789 2 2.48295 0.0035746 123.917
790 2 3.72442 0.720373 123.917
72 3 1.24148 0.71314 127.48
74 2 1.24147 0.720373 131.042
792 3 3.72444 0.71314 127.48
793 2 2.48295 0.0035746 131.043
794 2 3.72442 0.720373 131.042
76 3 1.24148 0.71314 134.605
796 3 3.72444 0.71314 134.605
78 2 1.24147 0.720373 138.168
80 3 1.24148 0.71314 141.731
797 2 2.48295 0.0035746 138.168
798 2 3.72442 0.720373 138.168
800 3 3.72444 0.71314 141.731
82 2 1.24147 0.720373 145.294
801 2 2.48295 0.0035746 145.294
802 2 3.72442 0.720373 145.294
84 3 1.24148 0.71314 148.856
86 2 1.24147 0.720373 152.419
804 3 3.72444 0.71314 148.856
805 2 2.48295 0.0035746 152.419
806 2 3.72442 0.720373 152.419
88 3 1.24148 0.71314 155.982
808 3 3.72444 0.71314 155.982
90 2 1.24147 0.720373 159.545
809 2 2.48295 0.0035746 159.545
810 2 3.72442 0.720373 159.545
92 3 1.24148 0.71314 163.108
94 2 1.24147 0.720373 166.67
812 3 3.72444 0.71314 163.108
813 2 2.48295 0.0035746 166.671
814 2 3.72442 0.720373 166.67
96 3 1.24148 0.71314 170.233
816 3 3.72444 0.71314 170.233
98 2 1.24147 0.720373 173.796
100 3 1.24148 0.71314 177.359
817 2 2.48295 0.0035746 173.796
818 2 3.72442 0.720373 173.796
820 3 3.72444 0.71314 177.359
102 2 1.24147 0.720373 180.922
821 2 2.48295 0.0035746 180.922
822 2 3.72442 0.720373 180.922
104 3 1.24148 0.71314 184.484
106 2 1.24147 0.720373 188.047
824 3 3.72444 0.71314 184.484
825 2 2.48295 0.0035746 188.047
826 2 3.72442 0.720373 188.047
108 3 1.24148 0.71314 191.61
828 3 3.72444 0.71314 191.61
110 2 1.24147 0.720373 195.173
829 2 2.48295 0.0035746 195.173
830 2 3.72442 0.720373 195.173
112 3 1.24148 0.71314 198.736
114 2 1.24147 0.720373 202.298
832 3 3.72444 0.71314 198.736
833 2 2.48295 0.0035746 202.299
834 2 3.72442 0.720373 202.298
116 3 1.24148 0.71314 205.861
836 3 3.72444 0.71314 205.861
118 2 1.24147 0.720373 209.424
120 3 1.24148 0.71314 212.987
837 2 2.48295 0.0035746 209.424
838 2 3.72442 0.720373 209.424
840 3 3.72444 0.71314 212.987
122 2 2.48294 2.87076 2.78161
841 2 3.72442 2.15396 2.78173
842 2 4.9659 2.87076 2.78161
123 1 1.24148 2.14674 6.34349
124 3 2.48296 2.86353 6.34436
126 2 2.48294 2.87076 9.90721
843 1 3.72443 2.14674 6.34349
844 3 4.96591 2.86353 6.34436
845 2 3.72442 2.15396 9.90733
846 2 4.9659 2.87076 9.90721
127 1 1.24148 2.14674 13.4691
128 3 2.48296 2.86353 13.47
847 1 3.72443 2.14674 13.4691
848 3 4.96591 2.86353 13.47
130 2 2.48294 2.87076 17.0328
849 2 3.72442 2.15396 17.0329
850 2 4.9659 2.87076 17.0328
131 1 1.24148 2.14674 20.5947
132 3 2.48296 2.86353 20.5956
134 2 2.48294 2.87076 24.1584
851 1 3.72443 2.14674 20.5947
852 3 4.96591 2.86353 20.5956
853 2 3.72442 2.15396 24.1585
854 2 4.9659 2.87076 24.1584
135 1 1.24148 2.14674 27.7203
136 3 2.48296 2.86353 27.7212
855 1 3.72443 2.14674 27.7203
856 3 4.96591 2.86353 27.7212
138 2 2.48294 2.87076 31.284
139 1 1.24148 2.14674 34.8459
140 3 2.48296 2.86353 34.8468
857 2 3.72442 2.15396 31.2841
858 2 4.9659 2.87076 31.284
859 1 3.72443 2.14674 34.8459
860 3 4.96591 2.86353 34.8468
142 2 2.48294 2.87076 38.4096
861 2 3.72442 2.15396 38.4097
862 2 4.9659 2.87076 38.4096
143 1 1.24148 2.14674 41.9715
144 3 2.48296 2.86353 41.9724
146 2 2.48294 2.87076 45.5352
863 1 3.72443 2.14674 41.9715
864 3 4.96591 2.86353 41.9724
865 2 3.72442 2.15396 45.5353
866 2 4.9659 2.87076 45.5352
147 1 1.24148 2.14674 49.0971
148 3 2.48296 2.86353 49.098
867 1 3.72443 2.14674 49.0971
868 3 4.96591 2.86353 49.098
150 2 2.48294 2.87076 52.6608
869 2 3.72442 2.15396 52.6609
870 2 4.9659 2.87076 52.6608
151 1 1.24148 2.14674 56.2227
152 3 2.48296 2.86353 56.2236
154 2 2.48294 2.87076 59.7864
871 1 3.72443 2.14674 56.2227
872 3 4.96591 2.86353 56.2236
873 2 3.72442 2.15396 59.7865
874 2 4.9659 2.87076 59.7864
155 1 1.24148 2.14674 63.3483
156 3 2.48296 2.86353 63.3492
875 1 3.72443 2.14674 63.3483
876 3 4.96591 2.86353 63.3492
158 2 2.48294 2.87076 66.912
159 1 1.24148 2.14674 70.4739
160 3 2.48296 2.86353 70.4748
877 2 3.72442 2.15396 66.9121
878 2 4.9659 2.87076 66.912
879 1 3.72443 2.14674 70.4739
880 3 4.96591 2.86353 70.4748
162 2 2.48294 2.87076 74.0376
881 2 3.72442 2.15396 74.0377
882 2 4.9659 2.87076 74.0376
163 1 1.24148 2.14674 77.5995
164 3 2.48296 2.86353 77.6004
166 2 2.48294 2.87076 81.1632
883 1 3.72443 2.14674 77.5995
884 3 4.96591 2.86353 77.6004
885 2 3.72442 2.15396 81.1633
886 2 4.9659 2.87076 81.1632
167 1 1.24148 2.14674 84.7251
168 3 2.48296 2.86353 84.726
887 1 3.72443 2.14674 84.7251
888 3 4.96591 2.86353 84.726
170 2 2.48294 2.87076 88.2888
889 2 3.72442 2.15396 88.2889
890 2 4.9659 2.87076 88.2888
171 1 1.24148 2.14674 91.8507
172 3 2.48296 2.86353 91.8516
174 2 2.48294 2.87076 95.4144
891 1 3.72443 2.14674 91.8507
892 3 4.96591 2.86353 91.8516
893 2 3.72442 2.15396 95.4145
894 2 4.9659 2.87076 95.4144
175 1 1.24148 2.14674 98.9763
176 3 2.48296 2.86353 98.9772
895 1 3.72443 2.14674 98.9763
896 3 4.96591 2.86353 98.9772
178 2 2.48294 2.87076 102.54
179 1 1.24148 2.14674 106.102
180 3 2.48296 2.86353 106.103
897 2 3.72442 2.15396 102.54
898 2 4.9659 2.87076 102.54
899 1 3.72443 2.14674 106.102
900 3 4.96591 2.86353 106.103
182 2 2.48294 2.87076 109.666
901 2 3.72442 2.15396 109.666
902 2 4.9659 2.87076 109.666
183 1 1.24148 2.14674 113.227
184 3 2.48296 2.86353 113.228
186 2 2.48294 2.87076 116.791
903 1 3.72443 2.14674 113.227
904 3 4.96591 2.86353 113.228
905 2 3.72442 2.15396 116.791
906 2 4.9659 2.87076 116.791
187 1 1.24148 2.14674 120.353
188 3 2.48296 2.86353 120.354
907 1 3.72443 2.14674 120.353
908 3 4.96591 2.86353 120.354
190 2 2.48294 2.87076 123.917
909 2 3.72442 2.15396 123.917
910 2 4.9659 2.87076 123.917
191 1 1.24148 2.14674 127.479
192 3 2.48296 2.86353 127.48
194 2 2.48294 2.87076 131.042
911 1 3.72443 2.14674 127.479
912 3 4.96591 2.86353 127.48
913 2 3.72442 2.15396 131.043
914 2 4.9659 2.87076 131.042
195 1 1.24148 2.14674 134.604
196 3 2.48296 2.86353 134.605
915 1 3.72443 2.14674 134.604
916 3 4.96591 2.86353 134.605
198 2 2.48294 2.87076 138.168
199 1 1.24148 2.14674 141.73
200 3 2.48296 2.86353 141.731
917 2 3.72442 2.15396 138.168
918 2 4.9659 2.87076 138.168
919 1 3.72443 2.14674 141.73
920 3 4.96591 2.86353 141.731
202 2 2.48294 2.87076 145.294
921 2 3.72442 2.15396 145.294
922 2 4.9659 2.87076 145.294
203 1 1.24148 2.14674 148.855
204 3 2.48296 2.86353 148.856
206 2 2.48294 2.87076 152.419
923 1 3.72443 2.14674 148.855
924 3 4.96591 2.86353 148.856
925 2 3.72442 2.15396 152.419
926 2 4.9659 2.87076 152.419
207 1 1.24148 2.14674 155.981
208 3 2.48296 2.86353 155.982
927 1 3.72443 2.14674 155.981
928 3 4.96591 2.86353 155.982
210 2 2.48294 2.87076 159.545
929 2 3.72442 2.15396 159.545
930 2 4.9659 2.87076 159.545
211 1 1.24148 2.14674 163.107
212 3 2.48296 2.86353 163.108
214 2 2.48294 2.87076 166.67
931 1 3.72443 2.14674 163.107
932 3 4.96591 2.86353 163.108
933 2 3.72442 2.15396 166.671
934 2 4.9659 2.87076 166.67
215 1 1.24148 2.14674 170.232
216 3 2.48296 2.86353 170.233
935 1 3.72443 2.14674 170.232
936 3 4.96591 2.86353 170.233
218 2 2.48294 2.87076 173.796
219 1 1.24148 2.14674 177.358
220 3 2.48296 2.86353 177.359
937 2 3.72442 2.15396 173.796
938 2 4.9659 2.87076 173.796
939 1 3.72443 2.14674 177.358
940 3 4.96591 2.86353 177.359
222 2 2.48294 2.87076 180.922
941 2 3.72442 2.15396 180.922
942 2 4.9659 2.87076 180.922
223 1 1.24148 2.14674 184.483
224 3 2.48296 2.86353 184.484
226 2 2.48294 2.87076 188.047
943 1 3.72443 2.14674 184.483
944 3 4.96591 2.86353 184.484
945 2 3.72442 2.15396 188.047
946 2 4.9659 2.87076 188.047
227 1 1.24148 2.14674 191.609
228 3 2.48296 2.86353 191.61
947 1 3.72443 2.14674 191.609
948 3 4.96591 2.86353 191.61
230 2 2.48294 2.87076 195.173
949 2 3.72442 2.15396 195.173
950 2 4.9659 2.87076 195.173
231 1 1.24148 2.14674 198.735
232 3 2.48296 2.86353 198.736
234 2 2.48294 2.87076 202.298
951 1 3.72443 2.14674 198.735
952 3 4.96591 2.86353 198.736
953 2 3.72442 2.15396 202.299
954 2 4.9659 2.87076 202.298
235 1 1.24148 2.14674 205.86
236 3 2.48296 2.86353 205.861
955 1 3.72443 2.14674 205.86
956 3 4.96591 2.86353 205.861
238 2 2.48294 2.87076 209.424
239 1 1.24148 2.14674 212.986
240 3 2.48296 2.86353 212.987
957 2 3.72442 2.15396 209.424
958 2 4.9659 2.87076 209.424
959 1 3.72443 2.14674 212.986
960 3 4.96591 2.86353 212.987
961 2 4.9659 4.30435 2.78173
243 1 2.48296 4.29713 6.34349
963 1 4.96591 4.29713 6.34349
965 2 4.9659 4.30435 9.90733
247 1 2.48296 4.29713 13.4691
967 1 4.96591 4.29713 13.4691
969 2 4.9659 4.30435 17.0329
251 1 2.48296 4.29713 20.5947
971 1 4.96591 4.29713 20.5947
973 2 4.9659 4.30435 24.1585
255 1 2.48296 4.29713 27.7203
975 1 4.96591 4.29713 27.7203
259 1 2.48296 4.29713 34.8459
977 2 4.9659 4.30435 31.2841
979 1 4.96591 4.29713 34.8459
981 2 4.9659 4.30435 38.4097
263 1 2.48296 4.29713 41.9715
983 1 4.96591 4.29713 41.9715
985 2 4.9659 4.30435 45.5353
267 1 2.48296 4.29713 49.0971
987 1 4.96591 4.29713 49.0971
989 2 4.9659 4.30435 52.6609
271 1 2.48296 4.29713 56.2227
991 1 4.96591 4.29713 56.2227
993 2 4.9659 4.30435 59.7865
275 1 2.48296 4.29713 63.3483
995 1 4.96591 4.29713 63.3483
279 1 2.48296 4.29713 70.4739
997 2 4.9659 4.30435 66.9121
999 1 4.96591 4.29713 70.4739
1001 2 4.9659 4.30435 74.0377
283 1 2.48296 4.29713 77.5995
1003 1 4.96591 4.29713 77.5995
1005 2 4.9659 4.30435 81.1633
287 1 2.48296 4.29713 84.7251
1007 1 4.96591 4.29713 84.7251
1009 2 4.9659 4.30435 88.2889
291 1 2.48296 4.29713 91.8507
1011 1 4.96591 4.29713 91.8507
1013 2 4.9659 4.30435 95.4145
295 1 2.48296 4.29713 98.9763
1015 1 4.96591 4.29713 98.9763
299 1 2.48296 4.29713 106.102
1017 2 4.9659 4.30435 102.54
1019 1 4.96591 4.29713 106.102
1021 2 4.9659 4.30435 109.666
303 1 2.48296 4.29713 113.227
1023 1 4.96591 4.29713 113.227
1025 2 4.9659 4.30435 116.791
307 1 2.48296 4.29713 120.353
1027 1 4.96591 4.29713 120.353
1029 2 4.9659 4.30435 123.917
311 1 2.48296 4.29713 127.479
1031 1 4.96591 4.29713 127.479
1033 2 4.9659 4.30435 131.043
315 1 2.48296 4.29713 134.604
1035 1 4.96591 4.29713 134.604
319 1 2.48296 4.29713 141.73
1037 2 4.9659 4.30435 138.168
1039 1 4.96591 4.29713 141.73
1041 2 4.9659 4.30435 145.294
323 1 2.48296 4.29713 148.855
1043 1 4.96591 4.29713 148.855
1045 2 4.9659 4.30435 152.419
327 1 2.48296 4.29713 155.981
1047 1 4.96591 4.29713 155.981
1049 2 4.9659 4.30435 159.545
331 1 2.48296 4.29713 163.107
1051 1 4.96591 4.29713 163.107
1053 2 4.9659 4.30435 166.671
335 1 2.48296 4.29713 170.232
1055 1 4.96591 4.29713 170.232
339 1 2.48296 4.29713 177.358
1057 2 4.9659 4.30435 173.796
1059 1 4.96591 4.29713 177.358
1061 2 4.9659 4.30435 180.922
343 1 2.48296 4.29713 184.483
1063 1 4.96591 4.29713 184.483
1065 2 4.9659 4.30435 188.047
347 1 2.48296 4.29713 191.609
1067 1 4.96591 4.29713 191.609
1069 2 4.9659 4.30435 195.173
351 1 2.48296 4.29713 198.735
1071 1 4.96591 4.29713 198.735
1073 2 4.9659 4.30435 202.299
355 1 2.48296 4.29713 205.86
1075 1 4.96591 4.29713 205.86
359 1 2.48296 4.29713 212.986
1077 2 4.9659 4.30435 209.424
1079 1 4.96591 4.29713 212.986
242 2 3.72442 5.02115 2.78161
962 2 6.20737 5.02115 2.78161
244 3 3.72443 5.01391 6.34436
246 2 3.72442 5.02115 9.90721
363 1 3.72443 6.44751 6.34349
964 3 6.20739 5.01391 6.34436
966 2 6.20737 5.02115 9.90721
1083 1 6.20738 6.44751 6.34349
248 3 3.72443 5.01391 13.47
367 1 3.72443 6.44751 13.4691
968 3 6.20739 5.01391 13.47
1087 1 6.20738 6.44751 13.4691
250 2 3.72442 5.02115 17.0328
970 2 6.20737 5.02115 17.0328
252 3 3.72443 5.01391 20.5956
254 2 3.72442 5.02115 24.1584
371 1 3.72443 6.44751 20.5947
972 3 6.20739 5.01391 20.5956
974 2 6.20737 5.02115 24.1584
1091 1 6.20738 6.44751 20.5947
256 3 3.72443 5.01391 27.7212
375 1 3.72443 6.44751 27.7203
976 3 6.20739 5.01391 27.7212
1095 1 6.20738 6.44751 27.7203
258 2 3.72442 5.02115 31.284
260 3 3.72443 5.01391 34.8468
379 1 3.72443 6.44751 34.8459
978 2 6.20737 5.02115 31.284
980 3 6.20739 5.01391 34.8468
1099 1 6.20738 6.44751 34.8459
262 2 3.72442 5.02115 38.4096
982 2 6.20737 5.02115 38.4096
264 3 3.72443 5.01391 41.9724
266 2 3.72442 5.02115 45.5352
383 1 3.72443 6.44751 41.9715
984 3 6.20739 5.01391 41.9724
986 2 6.20737 5.02115 45.5352
1103 1 6.20738 6.44751 41.9715
268 3 3.72443 5.01391 49.098
387 1 3.72443 6.44751 49.0971
988 3 6.20739 5.01391 49.098
1107 1 6.20738 6.44751 49.0971
270 2 3.72442 5.02115 52.6608
990 2 6.20737 5.02115 52.6608
272 3 3.72443 5.01391 56.2236
274 2 3.72442 5.02115 59.7864
391 1 3.72443 6.44751 56.2227
992 3 6.20739 5.01391 56.2236
994 2 6.20737 5.02115 59.7864
1111 1 6.20738 6.44751 56.2227
276 3 3.72443 5.01391 63.3492
395 1 3.72443 6.44751 63.3483
996 3 6.20739 5.01391 63.3492
1115 1 6.20738 6.44751 63.3483
278 2 3.72442 5.02115 66.912
280 3 3.72443 5.01391 70.4748
399 1 3.72443 6.44751 70.4739
998 2 6.20737 5.02115 66.912
1000 3 6.20739 5.01391 70.4748
1119 1 6.20738 6.44751 70.4739
282 2 3.72442 5.02115 74.0376
1002 2 6.20737 5.02115 74.0376
284 3 3.72443 5.01391 77.6004
286 2 3.72442 5.02115 81.1632
403 1 3.72443 6.44751 77.5995
1004 3 6.20739 5.01391 77.6004
1006 2 6.20737 5.02115 81.1632
1123 1 6.20738 6.44751 77.5995
288 3 3.72443 5.01391 84.726
407 1 3.72443 6.44751 84.7251
1008 3 6.20739 5.01391 84.726
1127 1 6.20738 6.44751 84.7251
290 2 3.72442 5.02115 88.2888
1010 2 6.20737 5.02115 88.2888
292 3 3.72443 5.01391 91.8516
294 2 3.72442 5.02115 95.4144
411 1 3.72443 6.44751 91.8507
1012 3 6.20739 5.01391 91.8516
1014 2 6.20737 5.02115 95.4144
1131 1 6.20738 6.44751 91.8507
296 3 3.72443 5.01391 98.9772
415 1 3.72443 6.44751 98.9763
1016 3 6.20739 5.01391 98.9772
1135 1 6.20738 6.44751 98.9763
298 2 3.72442 5.02115 102.54
300 3 3.72443 5.01391 106.103
419 1 3.72443 6.44751 106.102
1018 2 6.20737 5.02115 102.54
1020 3 6.20739 5.01391 106.103
1139 1 6.20738 6.44751 106.102
302 2 3.72442 5.02115 109.666
1022 2 6.20737 5.02115 109.666
304 3 3.72443 5.01391 113.228
306 2 3.72442 5.02115 116.791
423 1 3.72443 6.44751 113.227
1024 3 6.20739 5.01391 113.228
1026 2 6.20737 5.02115 116.791
1143 1 6.20738 6.44751 113.227
308 3 3.72443 5.01391 120.354
427 1 3.72443 6.44751 120.353
1028 3 6.20739 5.01391 120.354
1147 1 6.20738 6.44751 120.353
310 2 3.72442 5.02115 123.917
1030 2 6.20737 5.02115 123.917
312 3 3.72443 5.01391 127.48
314 2 3.72442 5.02115 131.042
431 1 3.72443 6.44751 127.479
1032 3 6.20739 5.01391 127.48
1034 2 6.20737 5.02115 131.042
1151 1 6.20738 6.44751 127.479
316 3 3.72443 5.01391 134.605
435 1 3.72443 6.44751 134.604
1036 3 6.20739 5.01391 134.605
1155 1 6.20738 6.44751 134.604
318 2 3.72442 5.02115 138.168
320 3 3.72443 5.01391 141.731
439 1 3.72443 6.44751 141.73
1038 2 6.20737 5.02115 138.168
1040 3 6.20739 5.01391 141.731
1159 1 6.20738 6.44751 141.73
322 2 3.72442 5.02115 145.294
1042 2 6.20737 5.02115 145.294
324 3 3.72443 5.01391 148.856
326 2 3.72442 5.02115 152.419
443 1 3.72443 6.44751 148.855
1044 3 6.20739 5.01391 148.856
1046 2 6.20737 5.02115 152.419
1163 1 6.20738 6.44751 148.855
328 3 3.72443 5.01391 155.982
447 1 3.72443 6.44751 155.981
1048 3 6.20739 5.01391 155.982
1167 1 6.20738 6.44751 155.981
330 2 3.72442 5.02115 159.545
1050 2 6.20737 5.02115 159.545
332 3 3.72443 5.01391 163.108
334 2 3.72442 5.02115 166.67
451 1 3.72443 6.44751 163.107
1052 3 6.20739 5.01391 163.108
1054 2 6.20737 5.02115 166.67
1171 1 6.20738 6.44751 163.107
336 3 3.72443 5.01391 170.233
455 1 3.72443 6.44751 170.232
1056 3 6.20739 5.01391 170.233
1175 1 6.20738 6.44751 170.232
338 2 3.72442 5.02115 173.796
340 3 3.72443 5.01391 177.359
459 1 3.72443 6.44751 177.358
1058 2 6.20737 5.02115 173.796
1060 3 6.20739 5.01391 177.359
1179 1 6.20738 6.44751 177.358
342 2 3.72442 5.02115 180.922
1062 2 6.20737 5.02115 180.922
344 3 3.72443 5.01391 184.484
346 2 3.72442 5.02115 188.047
463 1 3.72443 6.44751 184.483
1064 3 6.20739 5.01391 184.484
1066 2 6.20737 5.02115 188.047
1183 1 6.20738 6.44751 184.483
348 3 3.72443 5.01391 191.61
467 1 3.72443 6.44751 191.609
1068 3 6.20739 5.01391 191.61
1187 1 6.20738 6.44751 191.609
350 2 3.72442 5.02115 195.173
1070 2 6.20737 5.02115 195.173
352 3 3.72443 5.01391 198.736
354 2 3.72442 5.02115 202.298
471 1 3.72443 6.44751 198.735
1072 3 6.20739 5.01391 198.736
1074 2 6.20737 5.02115 202.298
1191 1 6.20738 6.44751 198.735
356 3 3.72443 5.01391 205.861
475 1 3.72443 6.44751 205.86
1076 3 6.20739 5.01391 205.861
1195 1 6.20738 6.44751 205.86
358 2 3.72442 5.02115 209.424
360 3 3.72443 5.01391 212.987
479 1 3.72443 6.44751 212.986
1078 2 6.20737 5.02115 209.424
1080 3 6.20739 5.01391 212.987
1199 1 6.20738 6.44751 212.986
362 2 4.96589 7.17153 2.78161
1081 2 6.20737 6.45473 2.78173
1082 2 7.44885 7.17153 2.78161
364 3 4.96591 7.1643 6.34436
366 2 4.96589 7.17153 9.90721
1084 3 7.44886 7.1643 6.34436
1085 2 6.20737 6.45473 9.90733
1086 2 7.44885 7.17153 9.90721
368 3 4.96591 7.1643 13.47
1088 3 7.44886 7.1643 13.47
370 2 4.96589 7.17153 17.0328
1089 2 6.20737 6.45473 17.0329
1090 2 7.44885 7.17153 17.0328
372 3 4.96591 7.1643 20.5956
374 2 4.96589 7.17153 24.1584
1092 3 7.44886 7.1643 20.5956
1093 2 6.20737 6.45473 24.1585
1094 2 7.44885 7.17153 24.1584
376 3 4.96591 7.1643 27.7212
1096 3 7.44886 7.1643 27.7212
378 2 4.96589 7.17153 31.284
380 3 4.96591 7.1643 34.8468
1097 2 6.20737 6.45473 31.2841
1098 2 7.44885 7.17153 31.284
1100 3 7.44886 7.1643 34.8468
382 2 4.96589 7.17153 38.4096
1101 2 6.20737 6.45473 38.4097
1102 2 7.44885 7.17153 38.4096
384 3 4.96591 7.1643 41.9724
386 2 4.96589 7.17153 45.5352
1104 3 7.44886 7.1643 41.9724
1105 2 6.20737 6.45473 45.5353
1106 2 7.44885 7.17153 45.5352
388 3 4.96591 7.1643 49.098
1108 3 7.44886 7.1643 49.098
390 2 4.96589 7.17153 52.6608
1109 2 6.20737 6.45473 52.6609
1110 2 7.44885 7.17153 52.6608
392 3 4.96591 7.1643 56.2236
394 2 4.96589 7.17153 59.7864
1112 3 7.44886 7.1643 56.2236
1113 2 6.20737 6.45473 59.7865
1114 2 7.44885 7.17153 59.7864
396 3 4.96591 7.1643 63.3492
1116 3 7.44886 7.1643 63.3492
398 2 4.96589 7.17153 66.912
400 3 4.96591 7.1643 70.4748
1117 2 6.20737 6.45473 66.9121
1118 2 7.44885 7.17153 66.912
1120 3 7.44886 7.1643 70.4748
402 2 4.96589 7.17153 74.0376
1121 2 6.20737 6.45473 74.0377
1122 2 7.44885 7.17153 74.0376
404 3 4.96591 7.1643 77.6004
406 2 4.96589 7.17153 81.1632
1124 3 7.44886 7.1643 77.6004
1125 2 6.20737 6.45473 81.1633
1126 2 7.44885 7.17153 81.1632
408 3 4.96591 7.1643 84.726
1128 3 7.44886 7.1643 84.726
410 2 4.96589 7.17153 88.2888
1129 2 6.20737 6.45473 88.2889
1130 2 7.44885 7.17153 88.2888
412 3 4.96591 7.1643 91.8516
414 2 4.96589 7.17153 95.4144
1132 3 7.44886 7.1643 91.8516
1133 2 6.20737 6.45473 95.4145
1134 2 7.44885 7.17153 95.4144
416 3 4.96591 7.1643 98.9772
1136 3 7.44886 7.1643 98.9772
418 2 4.96589 7.17153 102.54
420 3 4.96591 7.1643 106.103
1137 2 6.20737 6.45473 102.54
1138 2 7.44885 7.17153 102.54
1140 3 7.44886 7.1643 106.103
422 2 4.96589 7.17153 109.666
1141 2 6.20737 6.45473 109.666
1142 2 7.44885 7.17153 109.666
424 3 4.96591 7.1643 113.228
426 2 4.96589 7.17153 116.791
1144 3 7.44886 7.1643 113.228
1145 2 6.20737 6.45473 116.791
1146 2 7.44885 7.17153 116.791
428 3 4.96591 7.1643 120.354
1148 3 7.44886 7.1643 120.354
430 2 4.96589 7.17153 123.917
1149 2 6.20737 6.45473 123.917
1150 2 7.44885 7.17153 123.917
432 3 4.96591 7.1643 127.48
434 2 4.96589 7.17153 131.042
1152 3 7.44886 7.1643 127.48
1153 2 6.20737 6.45473 131.043
1154 2 7.44885 7.17153 131.042
436 3 4.96591 7.1643 134.605
1156 3 7.44886 7.1643 134.605
438 2 4.96589 7.17153 138.168
440 3 4.96591 7.1643 141.731
1157 2 6.20737 6.45473 138.168
1158 2 7.44885 7.17153 138.168
1160 3 7.44886 7.1643 141.731
442 2 4.96589 7.17153 145.294
1161 2 6.20737 6.45473 145.294
1162 2 7.44885 7.17153 145.294
444 3 4.96591 7.1643 148.856
446 2 4.96589 7.17153 152.419
1164 3 7.44886 7.1643 148.856
1165 2 6.20737 6.45473 152.419
1166 2 7.44885 7.17153 152.419
448 3 4.96591 7.1643 155.982
1168 3 7.44886 7.1643 155.982
450 2 4.96589 7.17153 159.545
1169 2 6.20737 6.45473 159.545
1170 2 7.44885 7.17153 159.545
452 3 4.96591 7.1643 163.108
454 2 4.96589 7.17153 166.67
1172 3 7.44886 7.1643 163.108
1173 2 6.20737 6.45473 166.671
1174 2 7.44885 7.17153 166.67
456 3 4.96591 7.1643 170.233
1176 3 7.44886 7.1643 170.233
458 2 4.96589 7.17153 173.796
460 3 4.96591 7.1643 177.359
1177 2 6.20737 6.45473 173.796
1178 2 7.44885 7.17153 173.796
1180 3 7.44886 7.1643 177.359
462 2 4.96589 7.17153 180.922
1181 2 6.20737 6.45473 180.922
1182 2 7.44885 7.17153 180.922
464 3 4.96591 7.1643 184.484
466 2 4.96589 7.17153 188.047
1184 3 7.44886 7.1643 184.484
1185 2 6.20737 6.45473 188.047
1186 2 7.44885 7.17153 188.047
468 3 4.96591 7.1643 191.61
1188 3 7.44886 7.1643 191.61
470 2 4.96589 7.17153 195.173
1189 2 6.20737 6.45473 195.173
1190 2 7.44885 7.17153 195.173
472 3 4.96591 7.1643 198.736
474 2 4.96589 7.17153 202.298
1192 3 7.44886 7.1643 198.736
1193 2 6.20737 6.45473 202.299
1194 2 7.44885 7.17153 202.298
476 3 4.96591 7.1643 205.861
1196 3 7.44886 7.1643 205.861
478 2 4.96589 7.17153 209.424
480 3 4.96591 7.1643 212.987
1197 2 6.20737 6.45473 209.424
1198 2 7.44885 7.17153 209.424
1200 3 7.44886 7.1643 212.987
482 2 6.20737 9.32192 2.78161
1201 2 7.44885 8.60512 2.78173
1202 2 8.69032 9.32192 2.78161
483 1 4.96591 8.5979 6.34349
484 3 6.20738 9.31469 6.34436
486 2 6.20737 9.32192 9.90721
1203 1 7.44886 8.5979 6.34349
1204 3 8.69034 9.31469 6.34436
1205 2 7.44885 8.60512 9.90733
1206 2 8.69032 9.32192 9.90721
487 1 4.96591 8.5979 13.4691
488 3 6.20738 9.31469 13.47
1207 1 7.44886 8.5979 13.4691
1208 3 8.69034 9.31469 13.47
490 2 6.20737 9.32192 17.0328
1209 2 7.44885 8.60512 17.0329
1210 2 8.69032 9.32192 17.0328
491 1 4.96591 8.5979 20.5947
492 3 6.20738 9.31469 20.5956
494 2 6.20737 9.32192 24.1584
1211 1 7.44886 8.5979 20.5947
1212 3 8.69034 9.31469 20.5956
1213 2 7.44885 8.60512 24.1585
1214 2 8.69032 9.32192 24.1584
495 1 4.96591 8.5979 27.7203
496 3 6.20738 9.31469 27.7212
1215 1 7.44886 8.5979 27.7203
1216 3 8.69034 9.31469 27.7212
498 2 6.20737 9.32192 31.284
499 1 4.96591 8.5979 34.8459
500 3 6.20738 9.31469 34.8468
1217 2 7.44885 8.60512 31.2841
1218 2 8.69032 9.32192 31.284
1219 1 7.44886 8.5979 34.8459
1220 3 8.69034 9.31469 34.8468
502 2 6.20737 9.32192 38.4096
1221 2 7.44885 8.60512 38.4097
1222 2 8.69032 9.32192 38.4096
503 1 4.96591 8.5979 41.9715
504 3 6.20738 9.31469 41.9724
506 2 6.20737 9.32192 45.5352
1223 1 7.44886 8.5979 41.9715
1224 3 8.69034 9.31469 41.9724
1225 2 7.44885 8.60512 45.5353
1226 2 8.69032 9.32192 45.5352
507 1 4.96591 8.5979 49.0971
508 3 6.20738 9.31469 49.098
1227 1 7.44886 8.5979 49.0971
1228 3 8.69034 9.31469 49.098
510 2 6.20737 9.32192 52.6608
1229 2 7.44885 8.60512 52.6609
1230 2 8.69032 9.32192 52.6608
511 1 4.96591 8.5979 56.2227
512 3 6.20738 9.31469 56.2236
514 2 6.20737 9.32192 59.7864
1231 1 7.44886 8.5979 56.2227
1232 3 8.69034 9.31469 56.2236
1233 2 7.44885 8.60512 59.7865
1234 2 8.69032 9.32192 59.7864
515 1 4.96591 8.5979 63.3483
516 3 6.20738 9.31469 63.3492
1235 1 7.44886 8.5979 63.3483
1236 3 8.69034 9.31469 63.3492
518 2 6.20737 9.32192 66.912
519 1 4.96591 8.5979 70.4739
520 3 6.20738 9.31469 70.4748
1237 2 7.44885 8.60512 66.9121
1238 2 8.69032 9.32192 66.912
1239 1 7.44886 8.5979 70.4739
1240 3 8.69034 9.31469 70.4748
522 2 6.20737 9.32192 74.0376
1241 2 7.44885 8.60512 74.0377
1242 2 8.69032 9.32192 74.0376
523 1 4.96591 8.5979 77.5995
524 3 6.20738 9.31469 77.6004
526 2 6.20737 9.32192 81.1632
1243 1 7.44886 8.5979 77.5995
1244 3 8.69034 9.31469 77.6004
1245 2 7.44885 8.60512 81.1633
1246 2 8.69032 9.32192 81.1632
527 1 4.96591 8.5979 84.7251
528 3 6.20738 9.31469 84.726
1247 1 7.44886 8.5979 84.7251
1248 3 8.69034 9.31469 84.726
530 2 6.20737 9.32192 88.2888
1249 2 7.44885 8.60512 88.2889
1250 2 8.69032 9.32192 88.2888
531 1 4.96591 8.5979 91.8507
532 3 6.20738 9.31469 91.8516
534 2 6.20737 9.32192 95.4144
1251 1 7.44886 8.5979 91.8507
1252 3 8.69034 9.31469 91.8516
1253 2 7.44885 8.60512 95.4145
1254 2 8.69032 9.32192 95.4144
535 1 4.96591 8.5979 98.9763
536 3 6.20738 9.31469 98.9772
1255 1 7.44886 8.5979 98.9763
1256 3 8.69034 9.31469 98.9772
538 2 6.20737 9.32192 102.54
539 1 4.96591 8.5979 106.102
540 3 6.20738 9.31469 106.103
1257 2 7.44885 8.60512 102.54
1258 2 8.69032 9.32192 102.54
1259 1 7.44886 8.5979 106.102
1260 3 8.69034 9.31469 106.103
542 2 6.20737 9.32192 109.666
1261 2 7.44885 8.60512 109.666
1262 2 8.69032 9.32192 109.666
543 1 4.96591 8.5979 113.227
544 3 6.20738 9.31469 113.228
546 2 6.20737 9.32192 116.791
1263 1 7.44886 8.5979 113.227
1264 3 8.69034 9.31469 113.228
1265 2 7.44885 8.60512 116.791
1266 2 8.69032 9.32192 116.791
547 1 4.96591 8.5979 120.353
548 3 6.20738 9.31469 120.354
1267 1 7.44886 8.5979 120.353
1268 3 8.69034 9.31469 120.354
550 2 6.20737 9.32192 123.917
1269 2 7.44885 8.60512 123.917
1270 2 8.69032 9.32192 123.917
551 1 4.96591 8.5979 127.479
552 3 6.20738 9.31469 127.48
554 2 6.20737 9.32192 131.042
1271 1 7.44886 8.5979 127.479
1272 3 8.69034 9.31469 127.48
1273 2 7.44885 8.60512 131.043
1274 2 8.69032 9.32192 131.042
555 1 4.96591 8.5979 134.604
556 3 6.20738 9.31469 134.605
1275 1 7.44886 8.5979 134.604
1276 3 8.69034 9.31469 134.605
558 2 6.20737 9.32192 138.168
559 1 4.96591 8.5979 141.73
560 3 6.20738 9.31469 141.731
1277 2 7.44885 8.60512 138.168
1278 2 8.69032 9.32192 138.168
1279 1 7.44886 8.5979 141.73
1280 3 8.69034 9.31469 141.731
562 2 6.20737 9.32192 145.294
1281 2 7.44885 8.60512 145.294
1282 2 8.69032 9.32192 145.294
563 1 4.96591 8.5979 148.855
564 3 6.20738 9.31469 148.856
566 2 6.20737 9.32192 152.419
1283 1 7.44886 8.5979 148.855
1284 3 8.69034 9.31469 148.856
1285 2 7.44885 8.60512 152.419
1286 2 8.69032 9.32192 152.419
567 1 4.96591 8.5979 155.981
568 3 6.20738 9.31469 155.982
1287 1 7.44886 8.5979 155.981
1288 3 8.69034 9.31469 155.982
570 2 6.20737 9.32192 159.545
1289 2 7.44885 8.60512 159.545
1290 2 8.69032 9.32192 159.545
571 1 4.96591 8.5979 163.107
572 3 6.20738 9.31469 163.108
574 2 6.20737 9.32192 166.67
1291 1 7.44886 8.5979 163.107
1292 3 8.69034 9.31469 163.108
1293 2 7.44885 8.60512 166.671
1294 2 8.69032 9.32192 166.67
575 1 4.96591 8.5979 170.232
576 3 6.20738 9.31469 170.233
1295 1 7.44886 8.5979 170.232
1296 3 8.69034 9.31469 170.233
578 2 6.20737 9.32192 173.796
579 1 4.96591 8.5979 177.358
580 3 6.20738 9.31469 177.359
1297 2 7.44885 8.60512 173.796
1298 2 8.69032 9.32192 173.796
1299 1 7.44886 8.5979 177.358
1300 3 8.69034 9.31469 177.359
582 2 6.20737 9.32192 180.922
1301 2 7.44885 8.60512 180.922
1302 2 8.69032 9.32192 180.922
583 1 4.96591 8.5979 184.483
584 3 6.20738 9.31469 184.484
586 2 6.20737 9.32192 188.047
1303 1 7.44886 8.5979 184.483
1304 3 8.69034 9.31469 184.484
1305 2 7.44885 8.60512 188.047
1306 2 8.69032 9.32192 188.047
587 1 4.96591 8.5979 191.609
588 3 6.20738 9.31469 191.61
1307 1 7.44886 8.5979 191.609
1308 3 8.69034 9.31469 191.61
590 2 6.20737 9.32192 195.173
1309 2 7.44885 8.60512 195.173
1310 2 8.69032 9.32192 195.173
591 1 4.96591 8.5979 198.735
592 3 6.20738 9.31469 198.736
594 2 6.20737 9.32192 202.298
1311 1 7.44886 8.5979 198.735
1312 3 8.69034 9.31469 198.736
1313 2 7.44885 8.60512 202.299
1314 2 8.69032 9.32192 202.298
595 1 4.96591 8.5979 205.86
596 3 6.20738 9.31469 205.861
1315 1 7.44886 8.5979 205.86
1316 3 8.69034 9.31469 205.861
598 2 6.20737 9.32192 209.424
599 1 4.96591 8.5979 212.986
600 3 6.20738 9.31469 212.987