Create LAMMPS data for SED method by using LT_Codes

7200 atoms

3 atom types

        0.0000000000        14.8986000000 xlo xhi
        0.0000000000        12.9025660806 ylo yhi
        0.0000000000       337.3900000000 zlo zhi
        7.4493000000         0.0000000000         0.0000000000 xy xz yz

Masses

1        10.8110000000  # B
2        12.0107000000  # C
3        14.0067000000  # N

Atoms

1 1         1.2415500000         0.7169095800         1.6721048400  # B
2 2         1.2415500000         0.7165655116         5.0474218780  # C
3 2         2.4830875845         1.4333675702         5.0470170100  # C
4 3         2.4831124155         0.0001075214         1.6735218780  # N
5 1         1.2415500000         0.7169095800         8.4199048400  # B
6 2         1.2415500000         0.7165655116        11.7952218780  # C
7 2         2.4830875845         1.4333675702        11.7948170100  # C
8 3         2.4831124155         0.0001075214         8.4213218780  # N
9 1         1.2415500000         0.7169095800        15.1677048400  # B
10 2         1.2415500000         0.7165655116        18.5430218780  # C
11 2         2.4830875845         1.4333675702        18.5426170100  # C
12 3         2.4831124155         0.0001075214        15.1691218780  # N
13 1         1.2415500000         0.7169095800        21.9155048400  # B
14 2         1.2415500000         0.7165655116        25.2908218780  # C
15 2         2.4830875845         1.4333675702        25.2904170100  # C
16 3         2.4831124155         0.0001075214        21.9169218780  # N
17 1         1.2415500000         0.7169095800        28.6633048400  # B
18 2         1.2415500000         0.7165655116        32.0386218780  # C
19 2         2.4830875845         1.4333675702        32.0382170100  # C
20 3         2.4831124155         0.0001075214        28.6647218780  # N
21 1         1.2415500000         0.7169095800        35.4111048400  # B
22 2         1.2415500000         0.7165655116        38.7864218780  # C
23 2         2.4830875845         1.4333675702        38.7860170100  # C
24 3         2.4831124155         0.0001075214        35.4125218780  # N
25 1         1.2415500000         0.7169095800        42.1589048400  # B
26 2         1.2415500000         0.7165655116        45.5342218780  # C
27 2         2.4830875845         1.4333675702        45.5338170100  # C
28 3         2.4831124155         0.0001075214        42.1603218780  # N
29 1         1.2415500000         0.7169095800        48.9067048400  # B
30 2         1.2415500000         0.7165655116        52.2820218780  # C
31 2         2.4830875845         1.4333675702        52.2816170100  # C
32 3         2.4831124155         0.0001075214        48.9081218780  # N
33 1         1.2415500000         0.7169095800        55.6545048400  # B
34 2         1.2415500000         0.7165655116        59.0298218780  # C
35 2         2.4830875845         1.4333675702        59.0294170100  # C
36 3         2.4831124155         0.0001075214        55.6559218780  # N
37 1         1.2415500000         0.7169095800        62.4023048400  # B
38 2         1.2415500000         0.7165655116        65.7776218780  # C
39 2         2.4830875845         1.4333675702        65.7772170100  # C
40 3         2.4831124155         0.0001075214        62.4037218780  # N
41 1         1.2415500000         0.7169095800        69.1501048400  # B
42 2         1.2415500000         0.7165655116        72.5254218780  # C
43 2         2.4830875845         1.4333675702        72.5250170100  # C
44 3         2.4831124155         0.0001075214        69.1515218780  # N
45 1         1.2415500000         0.7169095800        75.8979048400  # B
46 2         1.2415500000         0.7165655116        79.2732218780  # C
47 2         2.4830875845         1.4333675702        79.2728170100  # C
48 3         2.4831124155         0.0001075214        75.8993218780  # N
49 1         1.2415500000         0.7169095800        82.6457048400  # B
50 2         1.2415500000         0.7165655116        86.0210218780  # C
51 2         2.4830875845         1.4333675702        86.0206170100  # C
52 3         2.4831124155         0.0001075214        82.6471218780  # N
53 1         1.2415500000         0.7169095800        89.3935048400  # B
54 2         1.2415500000         0.7165655116        92.7688218780  # C
55 2         2.4830875845         1.4333675702        92.7684170100  # C
56 3         2.4831124155         0.0001075214        89.3949218780  # N
57 1         1.2415500000         0.7169095800        96.1413048400  # B
58 2         1.2415500000         0.7165655116        99.5166218780  # C
59 2         2.4830875845         1.4333675702        99.5162170100  # C
60 3         2.4831124155         0.0001075214        96.1427218780  # N
61 1         1.2415500000         0.7169095800       102.8891048400  # B
62 2         1.2415500000         0.7165655116       106.2644218780  # C
63 2         2.4830875845         1.4333675702       106.2640170100  # C
64 3         2.4831124155         0.0001075214       102.8905218780  # N
65 1         1.2415500000         0.7169095800       109.6369048400  # B
66 2         1.2415500000         0.7165655116       113.0122218780  # C
67 2         2.4830875845         1.4333675702       113.0118170100  # C
68 3         2.4831124155         0.0001075214       109.6383218780  # N
69 1         1.2415500000         0.7169095800       116.3847048400  # B
70 2         1.2415500000         0.7165655116       119.7600218780  # C
71 2         2.4830875845         1.4333675702       119.7596170100  # C
72 3         2.4831124155         0.0001075214       116.3861218780  # N
73 1         1.2415500000         0.7169095800       123.1325048400  # B
74 2         1.2415500000         0.7165655116       126.5078218780  # C
75 2         2.4830875845         1.4333675702       126.5074170100  # C
76 3         2.4831124155         0.0001075214       123.1339218780  # N
77 1         1.2415500000         0.7169095800       129.8803048400  # B
78 2         1.2415500000         0.7165655116       133.2556218780  # C
79 2         2.4830875845         1.4333675702       133.2552170100  # C
80 3         2.4831124155         0.0001075214       129.8817218780  # N
81 1         1.2415500000         0.7169095800       136.6281048400  # B
82 2         1.2415500000         0.7165655116       140.0034218780  # C
83 2         2.4830875845         1.4333675702       140.0030170100  # C
84 3         2.4831124155         0.0001075214       136.6295218780  # N
85 1         1.2415500000         0.7169095800       143.3759048400  # B
86 2         1.2415500000         0.7165655116       146.7512218780  # C
87 2         2.4830875845         1.4333675702       146.7508170100  # C
88 3         2.4831124155         0.0001075214       143.3773218780  # N
89 1         1.2415500000         0.7169095800       150.1237048400  # B
90 2         1.2415500000         0.7165655116       153.4990218780  # C
91 2         2.4830875845         1.4333675702       153.4986170100  # C
92 3         2.4831124155         0.0001075214       150.1251218780  # N
93 1         1.2415500000         0.7169095800       156.8715048400  # B
94 2         1.2415500000         0.7165655116       160.2468218780  # C
95 2         2.4830875845         1.4333675702       160.2464170100  # C
96 3         2.4831124155         0.0001075214       156.8729218780  # N
97 1         1.2415500000         0.7169095800       163.6193048400  # B
98 2         1.2415500000         0.7165655116       166.9946218780  # C
99 2         2.4830875845         1.4333675702       166.9942170100  # C
100 3         2.4831124155         0.0001075214       163.6207218780  # N
101 1         1.2415500000         0.7169095800       170.3671048400  # B
102 2         1.2415500000         0.7165655116       173.7424218780  # C
103 2         2.4830875845         1.4333675702       173.7420170100  # C
104 3         2.4831124155         0.0001075214       170.3685218780  # N
105 1         1.2415500000         0.7169095800       177.1149048400  # B
106 2         1.2415500000         0.7165655116       180.4902218780  # C
107 2         2.4830875845         1.4333675702       180.4898170100  # C
108 3         2.4831124155         0.0001075214       177.1163218780  # N
109 1         1.2415500000         0.7169095800       183.8627048400  # B
110 2         1.2415500000         0.7165655116       187.2380218780  # C
111 2         2.4830875845         1.4333675702       187.2376170100  # C
112 3         2.4831124155         0.0001075214       183.8641218780  # N
113 1         1.2415500000         0.7169095800       190.6105048400  # B
114 2         1.2415500000         0.7165655116       193.9858218780  # C
115 2         2.4830875845         1.4333675702       193.9854170100  # C
116 3         2.4831124155         0.0001075214       190.6119218780  # N
117 1         1.2415500000         0.7169095800       197.3583048400  # B
118 2         1.2415500000         0.7165655116       200.7336218780  # C
119 2         2.4830875845         1.4333675702       200.7332170100  # C
120 3         2.4831124155         0.0001075214       197.3597218780  # N
121 1         1.2415500000         0.7169095800       204.1061048400  # B
122 2         1.2415500000         0.7165655116       207.4814218780  # C
123 2         2.4830875845         1.4333675702       207.4810170100  # C
124 3         2.4831124155         0.0001075214       204.1075218780  # N
125 1         1.2415500000         0.7169095800       210.8539048400  # B
126 2         1.2415500000         0.7165655116       214.2292218780  # C
127 2         2.4830875845         1.4333675702       214.2288170100  # C
128 3         2.4831124155         0.0001075214       210.8553218780  # N
129 1         1.2415500000         0.7169095800       217.6017048400  # B
130 2         1.2415500000         0.7165655116       220.9770218780  # C
131 2         2.4830875845         1.4333675702       220.9766170100  # C
132 3         2.4831124155         0.0001075214       217.6031218780  # N
133 1         1.2415500000         0.7169095800       224.3495048400  # B
134 2         1.2415500000         0.7165655116       227.7248218780  # C
135 2         2.4830875845         1.4333675702       227.7244170100  # C
136 3         2.4831124155         0.0001075214       224.3509218780  # N
137 1         1.2415500000         0.7169095800       231.0973048400  # B
138 2         1.2415500000         0.7165655116       234.4726218780  # C
139 2         2.4830875845         1.4333675702       234.4722170100  # C
140 3         2.4831124155         0.0001075214       231.0987218780  # N
141 1         1.2415500000         0.7169095800       237.8451048400  # B
142 2         1.2415500000         0.7165655116       241.2204218780  # C
143 2         2.4830875845         1.4333675702       241.2200170100  # C
144 3         2.4831124155         0.0001075214       237.8465218780  # N
145 1         1.2415500000         0.7169095800       244.5929048400  # B
146 2         1.2415500000         0.7165655116       247.9682218780  # C
147 2         2.4830875845         1.4333675702       247.9678170100  # C
148 3         2.4831124155         0.0001075214       244.5943218780  # N
149 1         1.2415500000         0.7169095800       251.3407048400  # B
150 2         1.2415500000         0.7165655116       254.7160218780  # C
151 2         2.4830875845         1.4333675702       254.7156170100  # C
152 3         2.4831124155         0.0001075214       251.3421218780  # N
153 1         1.2415500000         0.7169095800       258.0885048400  # B
154 2         1.2415500000         0.7165655116       261.4638218780  # C
155 2         2.4830875845         1.4333675702       261.4634170100  # C
156 3         2.4831124155         0.0001075214       258.0899218780  # N
157 1         1.2415500000         0.7169095800       264.8363048400  # B
158 2         1.2415500000         0.7165655116       268.2116218780  # C
159 2         2.4830875845         1.4333675702       268.2112170100  # C
160 3         2.4831124155         0.0001075214       264.8377218780  # N
161 1         1.2415500000         0.7169095800       271.5841048400  # B
162 2         1.2415500000         0.7165655116       274.9594218780  # C
163 2         2.4830875845         1.4333675702       274.9590170100  # C
164 3         2.4831124155         0.0001075214       271.5855218780  # N
165 1         1.2415500000         0.7169095800       278.3319048400  # B
166 2         1.2415500000         0.7165655116       281.7072218780  # C
167 2         2.4830875845         1.4333675702       281.7068170100  # C
168 3         2.4831124155         0.0001075214       278.3333218780  # N
169 1         1.2415500000         0.7169095800       285.0797048400  # B
170 2         1.2415500000         0.7165655116       288.4550218780  # C
171 2         2.4830875845         1.4333675702       288.4546170100  # C
172 3         2.4831124155         0.0001075214       285.0811218780  # N
173 1         1.2415500000         0.7169095800       291.8275048400  # B
174 2         1.2415500000         0.7165655116       295.2028218780  # C
175 2         2.4830875845         1.4333675702       295.2024170100  # C
176 3         2.4831124155         0.0001075214       291.8289218780  # N
177 1         1.2415500000         0.7169095800       298.5753048400  # B
178 2         1.2415500000         0.7165655116       301.9506218780  # C
179 2         2.4830875845         1.4333675702       301.9502170100  # C
180 3         2.4831124155         0.0001075214       298.5767218780  # N
181 1         1.2415500000         0.7169095800       305.3231048400  # B
182 2         1.2415500000         0.7165655116       308.6984218780  # C
183 2         2.4830875845         1.4333675702       308.6980170100  # C
184 3         2.4831124155         0.0001075214       305.3245218780  # N
185 1         1.2415500000         0.7169095800       312.0709048400  # B
186 2         1.2415500000         0.7165655116       315.4462218780  # C
187 2         2.4830875845         1.4333675702       315.4458170100  # C
188 3         2.4831124155         0.0001075214       312.0723218780  # N
189 1         1.2415500000         0.7169095800       318.8187048400  # B
190 2         1.2415500000         0.7165655116       322.1940218780  # C
191 2         2.4830875845         1.4333675702       322.1936170100  # C
192 3         2.4831124155         0.0001075214       318.8201218780  # N
193 1         1.2415500000         0.7169095800       325.5665048400  # B
194 2         1.2415500000         0.7165655116       328.9418218780  # C
195 2         2.4830875845         1.4333675702       328.9414170100  # C
196 3         2.4831124155         0.0001075214       325.5679218780  # N
197 1         1.2415500000         0.7169095800       332.3143048400  # B
198 2         1.2415500000         0.7165655116       335.6896218780  # C
199 2         2.4830875845         1.4333675702       335.6892170100  # C
200 3         2.4831124155         0.0001075214       332.3157218780  # N
201 1         2.4831000000         2.8673372601         1.6721048400  # B
202 2         2.4831000000         2.8669931917         5.0474218780  # C
203 2         3.7246375845         3.5837952503         5.0470170100  # C
204 3         3.7246624155         2.1505352015         1.6735218780  # N
205 1         2.4831000000         2.8673372601         8.4199048400  # B
206 2         2.4831000000         2.8669931917        11.7952218780  # C
207 2         3.7246375845         3.5837952503        11.7948170100  # C
208 3         3.7246624155         2.1505352015         8.4213218780  # N
209 1         2.4831000000         2.8673372601        15.1677048400  # B
210 2         2.4831000000         2.8669931917        18.5430218780  # C
211 2         3.7246375845         3.5837952503        18.5426170100  # C
212 3         3.7246624155         2.1505352015        15.1691218780  # N
213 1         2.4831000000         2.8673372601        21.9155048400  # B
214 2         2.4831000000         2.8669931917        25.2908218780  # C
215 2         3.7246375845         3.5837952503        25.2904170100  # C
216 3         3.7246624155         2.1505352015        21.9169218780  # N
217 1         2.4831000000         2.8673372601        28.6633048400  # B
218 2         2.4831000000         2.8669931917        32.0386218780  # C
219 2         3.7246375845         3.5837952503        32.0382170100  # C
220 3         3.7246624155         2.1505352015        28.6647218780  # N
221 1         2.4831000000         2.8673372601        35.4111048400  # B
222 2         2.4831000000         2.8669931917        38.7864218780  # C
223 2         3.7246375845         3.5837952503        38.7860170100  # C
224 3         3.7246624155         2.1505352015        35.4125218780  # N
225 1         2.4831000000         2.8673372601        42.1589048400  # B
226 2         2.4831000000         2.8669931917        45.5342218780  # C
227 2         3.7246375845         3.5837952503        45.5338170100  # C
228 3         3.7246624155         2.1505352015        42.1603218780  # N
229 1         2.4831000000         2.8673372601        48.9067048400  # B
230 2         2.4831000000         2.8669931917        52.2820218780  # C
231 2         3.7246375845         3.5837952503        52.2816170100  # C
232 3         3.7246624155         2.1505352015        48.9081218780  # N
233 1         2.4831000000         2.8673372601        55.6545048400  # B
234 2         2.4831000000         2.8669931917        59.0298218780  # C
235 2         3.7246375845         3.5837952503        59.0294170100  # C
236 3         3.7246624155         2.1505352015        55.6559218780  # N
237 1         2.4831000000         2.8673372601        62.4023048400  # B
238 2         2.4831000000         2.8669931917        65.7776218780  # C
239 2         3.7246375845         3.5837952503        65.7772170100  # C
240 3         3.7246624155         2.1505352015        62.4037218780  # N
241 1         2.4831000000         2.8673372601        69.1501048400  # B
242 2         2.4831000000         2.8669931917        72.5254218780  # C
243 2         3.7246375845         3.5837952503        72.5250170100  # C
244 3         3.7246624155         2.1505352015        69.1515218780  # N
245 1         2.4831000000         2.8673372601        75.8979048400  # B
246 2         2.4831000000         2.8669931917        79.2732218780  # C
247 2         3.7246375845         3.5837952503        79.2728170100  # C
248 3         3.7246624155         2.1505352015        75.8993218780  # N
249 1         2.4831000000         2.8673372601        82.6457048400  # B
250 2         2.4831000000         2.8669931917        86.0210218780  # C
251 2         3.7246375845         3.5837952503        86.0206170100  # C
252 3         3.7246624155         2.1505352015        82.6471218780  # N
253 1         2.4831000000         2.8673372601        89.3935048400  # B
254 2         2.4831000000         2.8669931917        92.7688218780  # C
255 2         3.7246375845         3.5837952503        92.7684170100  # C
256 3         3.7246624155         2.1505352015        89.3949218780  # N
257 1         2.4831000000         2.8673372601        96.1413048400  # B
258 2         2.4831000000         2.8669931917        99.5166218780  # C
259 2         3.7246375845         3.5837952503        99.5162170100  # C
260 3         3.7246624155         2.1505352015        96.1427218780  # N
261 1         2.4831000000         2.8673372601       102.8891048400  # B
262 2         2.4831000000         2.8669931917       106.2644218780  # C
263 2         3.7246375845         3.5837952503       106.2640170100  # C
264 3         3.7246624155         2.1505352015       102.8905218780  # N
265 1         2.4831000000         2.8673372601       109.6369048400  # B
266 2         2.4831000000         2.8669931917       113.0122218780  # C
267 2         3.7246375845         3.5837952503       113.0118170100  # C
268 3         3.7246624155         2.1505352015       109.6383218780  # N
269 1         2.4831000000         2.8673372601       116.3847048400  # B
270 2         2.4831000000         2.8669931917       119.7600218780  # C
271 2         3.7246375845         3.5837952503       119.7596170100  # C
272 3         3.7246624155         2.1505352015       116.3861218780  # N
273 1         2.4831000000         2.8673372601       123.1325048400  # B
274 2         2.4831000000         2.8669931917       126.5078218780  # C
275 2         3.7246375845         3.5837952503       126.5074170100  # C
276 3         3.7246624155         2.1505352015       123.1339218780  # N
277 1         2.4831000000         2.8673372601       129.8803048400  # B
278 2         2.4831000000         2.8669931917       133.2556218780  # C
279 2         3.7246375845         3.5837952503       133.2552170100  # C
280 3         3.7246624155         2.1505352015       129.8817218780  # N
281 1         2.4831000000         2.8673372601       136.6281048400  # B
282 2         2.4831000000         2.8669931917       140.0034218780  # C
283 2         3.7246375845         3.5837952503       140.0030170100  # C
284 3         3.7246624155         2.1505352015       136.6295218780  # N
285 1         2.4831000000         2.8673372601       143.3759048400  # B
286 2         2.4831000000         2.8669931917       146.7512218780  # C
287 2         3.7246375845         3.5837952503       146.7508170100  # C
288 3         3.7246624155         2.1505352015       143.3773218780  # N
289 1         2.4831000000         2.8673372601       150.1237048400  # B
290 2         2.4831000000         2.8669931917       153.4990218780  # C
291 2         3.7246375845         3.5837952503       153.4986170100  # C
292 3         3.7246624155         2.1505352015       150.1251218780  # N
293 1         2.4831000000         2.8673372601       156.8715048400  # B
294 2         2.4831000000         2.8669931917       160.2468218780  # C
295 2         3.7246375845         3.5837952503       160.2464170100  # C
296 3         3.7246624155         2.1505352015       156.8729218780  # N
297 1         2.4831000000         2.8673372601       163.6193048400  # B
298 2         2.4831000000         2.8669931917       166.9946218780  # C
299 2         3.7246375845         3.5837952503       166.9942170100  # C
300 3         3.7246624155         2.1505352015       163.6207218780  # N
301 1         2.4831000000         2.8673372601       170.3671048400  # B
302 2         2.4831000000         2.8669931917       173.7424218780  # C
303 2         3.7246375845         3.5837952503       173.7420170100  # C
304 3         3.7246624155         2.1505352015       170.3685218780  # N
305 1         2.4831000000         2.8673372601       177.1149048400  # B
306 2         2.4831000000         2.8669931917       180.4902218780  # C
307 2         3.7246375845         3.5837952503       180.4898170100  # C
308 3         3.7246624155         2.1505352015       177.1163218780  # N
309 1         2.4831000000         2.8673372601       183.8627048400  # B
310 2         2.4831000000         2.8669931917       187.2380218780  # C
311 2         3.7246375845         3.5837952503       187.2376170100  # C
312 3         3.7246624155         2.1505352015       183.8641218780  # N
313 1         2.4831000000         2.8673372601       190.6105048400  # B
314 2         2.4831000000         2.8669931917       193.9858218780  # C
315 2         3.7246375845         3.5837952503       193.9854170100  # C
316 3         3.7246624155         2.1505352015       190.6119218780  # N
317 1         2.4831000000         2.8673372601       197.3583048400  # B
318 2         2.4831000000         2.8669931917       200.7336218780  # C
319 2         3.7246375845         3.5837952503       200.7332170100  # C
320 3         3.7246624155         2.1505352015       197.3597218780  # N
321 1         2.4831000000         2.8673372601       204.1061048400  # B
322 2         2.4831000000         2.8669931917       207.4814218780  # C
323 2         3.7246375845         3.5837952503       207.4810170100  # C
324 3         3.7246624155         2.1505352015       204.1075218780  # N
325 1         2.4831000000         2.8673372601       210.8539048400  # B
326 2         2.4831000000         2.8669931917       214.2292218780  # C
327 2         3.7246375845         3.5837952503       214.2288170100  # C
328 3         3.7246624155         2.1505352015       210.8553218780  # N
329 1         2.4831000000         2.8673372601       217.6017048400  # B
330 2         2.4831000000         2.8669931917       220.9770218780  # C
331 2         3.7246375845         3.5837952503       220.9766170100  # C
332 3         3.7246624155         2.1505352015       217.6031218780  # N
333 1         2.4831000000         2.8673372601       224.3495048400  # B
334 2         2.4831000000         2.8669931917       227.7248218780  # C
335 2         3.7246375845         3.5837952503       227.7244170100  # C
336 3         3.7246624155         2.1505352015       224.3509218780  # N
337 1         2.4831000000         2.8673372601       231.0973048400  # B
338 2         2.4831000000         2.8669931917       234.4726218780  # C
339 2         3.7246375845         3.5837952503       234.4722170100  # C
340 3         3.7246624155         2.1505352015       231.0987218780  # N
341 1         2.4831000000         2.8673372601       237.8451048400  # B
342 2         2.4831000000         2.8669931917       241.2204218780  # C
343 2         3.7246375845         3.5837952503       241.2200170100  # C
344 3         3.7246624155         2.1505352015       237.8465218780  # N
345 1         2.4831000000         2.8673372601       244.5929048400  # B
346 2         2.4831000000         2.8669931917       247.9682218780  # C
347 2         3.7246375845         3.5837952503       247.9678170100  # C
348 3         3.7246624155         2.1505352015       244.5943218780  # N
349 1         2.4831000000         2.8673372601       251.3407048400  # B
350 2         2.4831000000         2.8669931917       254.7160218780  # C
351 2         3.7246375845         3.5837952503       254.7156170100  # C
352 3         3.7246624155         2.1505352015       251.3421218780  # N
353 1         2.4831000000         2.8673372601       258.0885048400  # B
354 2         2.4831000000         2.8669931917       261.4638218780  # C
355 2         3.7246375845         3.5837952503       261.4634170100  # C
356 3         3.7246624155         2.1505352015       258.0899218780  # N
357 1         2.4831000000         2.8673372601       264.8363048400  # B
358 2         2.4831000000         2.8669931917       268.2116218780  # C
359 2         3.7246375845         3.5837952503       268.2112170100  # C
360 3         3.7246624155         2.1505352015       264.8377218780  # N
361 1         2.4831000000         2.8673372601       271.5841048400  # B
362 2         2.4831000000         2.8669931917       274.9594218780  # C
363 2         3.7246375845         3.5837952503       274.9590170100  # C
364 3         3.7246624155         2.1505352015       271.5855218780  # N
365 1         2.4831000000         2.8673372601       278.3319048400  # B
366 2         2.4831000000         2.8669931917       281.7072218780  # C
367 2         3.7246375845         3.5837952503       281.7068170100  # C
368 3         3.7246624155         2.1505352015       278.3333218780  # N
369 1         2.4831000000         2.8673372601       285.0797048400  # B
370 2         2.4831000000         2.8669931917       288.4550218780  # C
371 2         3.7246375845         3.5837952503       288.4546170100  # C
372 3         3.7246624155         2.1505352015       285.0811218780  # N
373 1         2.4831000000         2.8673372601       291.8275048400  # B
374 2         2.4831000000         2.8669931917       295.2028218780  # C
375 2         3.7246375845         3.5837952503       295.2024170100  # C
376 3         3.7246624155         2.1505352015       291.8289218780  # N
377 1         2.4831000000         2.8673372601       298.5753048400  # B
378 2         2.4831000000         2.8669931917       301.9506218780  # C
379 2         3.7246375845         3.5837952503       301.9502170100  # C
380 3         3.7246624155         2.1505352015       298.5767218780  # N
381 1         2.4831000000         2.8673372601       305.3231048400  # B
382 2         2.4831000000         2.8669931917       308.6984218780  # C
383 2         3.7246375845         3.5837952503       308.6980170100  # C
384 3         3.7246624155         2.1505352015       305.3245218780  # N
385 1         2.4831000000         2.8673372601       312.0709048400  # B
386 2         2.4831000000         2.8669931917       315.4462218780  # C
387 2         3.7246375845         3.5837952503       315.4458170100  # C
388 3         3.7246624155         2.1505352015       312.0723218780  # N
389 1         2.4831000000         2.8673372601       318.8187048400  # B
390 2         2.4831000000         2.8669931917       322.1940218780  # C
391 2         3.7246375845         3.5837952503       322.1936170100  # C
392 3         3.7246624155         2.1505352015       318.8201218780  # N
393 1         2.4831000000         2.8673372601       325.5665048400  # B
394 2         2.4831000000         2.8669931917       328.9418218780  # C
395 2         3.7246375845         3.5837952503       328.9414170100  # C
396 3         3.7246624155         2.1505352015       325.5679218780  # N
397 1         2.4831000000         2.8673372601       332.3143048400  # B
398 2         2.4831000000         2.8669931917       335.6896218780  # C
399 2         3.7246375845         3.5837952503       335.6892170100  # C
400 3         3.7246624155         2.1505352015       332.3157218780  # N
401 1         3.7246500000         5.0177649402         1.6721048400  # B