  1.2451851e-01   1.1987531e-06
  1.4636195e-01   4.8924535e-06
 -1.2667604e-01   6.4337091e-06
 -1.0770753e-01   3.7892580e-06
  2.2868615e-05   8.5968913e-06
  1.7730743e+00   4.9445084e-06
 -2.3765591e-01   3.5871378e-06
 -1.8885341e-05   1.3257349e-05
 -7.3104391e-05   2.0852003e-05
 -1.8951905e-04   1.5462294e-05
 -6.7556536e-01   6.6431053e-06
 -7.7266204e-06   1.0980355e-05
  1.5573154e-04   4.8708266e-06
 -6.9298369e-01   1.9942297e-06
 -1.3686742e-01   3.0082956e-06
 -6.4041436e-05   7.6301109e-07
 -9.1132089e-02   1.6902776e-06
 -3.5177120e-05   9.0954618e-06
 -1.8837568e-04   1.2504618e-05
 -6.6261477e-05   3.0976928e-05
  2.5106245e-05   3.1085704e-06
  5.3519641e-05   2.1370399e-05
 -5.8075107e-06   1.7965331e-05
 -4.8130728e-06   1.3306150e-06
  1.5730820e-05   5.6072604e-06
 -2.4300049e-05   8.2782772e-06
 -1.6402553e-05   3.8921344e-06
 -6.3677139e-06   8.3961058e-06
 -8.5415020e-05   5.8810238e-06
  9.0082111e-05   5.7746593e-06
 -1.7726141e-04   1.4803828e-05
  1.8010134e-04   7.4191171e-06
 -1.7370148e-05   3.2389944e-06
 -3.6748206e-05   1.0610414e-05
  5.4599135e-05   5.0299373e-06
  7.3118736e-06   1.6169141e-06
 -7.8472776e-06   1.0953994e-05
 -2.0829233e-04   2.2383533e-06
  4.8299411e-05   3.5823482e-06
  6.5169506e-06   1.7259272e-06
  9.1561909e-05   6.6036796e-06
 -4.2184925e-05   2.9723994e-06
  2.1204214e-05   1.2250274e-06
 -4.2992026e-05   7.7457817e-06
  6.4694368e-06   3.1461909e-06
 -2.2977997e-04   1.2247630e-05
  2.9949283e-06   1.1653725e-05
 -4.6061090e-05   7.8375770e-06
 -3.3165627e-05   1.7518154e-07
 -2.2398361e-05   1.4486327e-05
 -3.2916298e-04   6.7045548e-06
  3.5829911e-05   3.3183330e-06
 -4.9370539e-04   1.0686879e-06
  5.9075619e-06   1.5636106e-06
  8.8843342e-05   2.3749801e-07
  3.3256834e-05   5.7800266e-06
 -1.5555495e-05   1.1102266e-05
  7.2027733e-06   2.5769166e-06
  9.3612456e-05   1.9856701e-05
  6.0051942e-05   2.4623844e-06
 -3.6839910e-02   2.2757386e-06
  1.2947232e-04   1.2238407e-06
 -6.4571536e-06   1.5628186e-05
 -1.2339908e-04   1.0327984e-05
  2.9365418e-05   1.7080928e-06
  2.2298630e-04   5.4159582e-06
  8.1693390e-05   1.4482753e-05
  5.0567384e-03   2.2603999e-07
  9.0308778e-05   2.9385678e-06
  2.6893953e-04   2.6494568e-05
 -1.8679215e-04   1.1865404e-05
 -9.3362629e-05   9.6949307e-06
 -2.3703893e-04   6.5005470e-06
 -1.6699756e-05   1.7866483e-05
 -5.9937061e-06   2.0477480e-06
  1.2629083e-04   5.4621019e-06
  3.1051262e-05   1.8627239e-05
 -1.3958866e-04   2.0293055e-06
 -7.9100260e-05   1.0310928e-05
  2.7579999e-05   8.3480691e-06
 -2.5127891e-05   4.7043732e-06
 -3.4325087e-05   2.8902750e-06
  8.5528991e-06   3.6636004e-06
 -1.6530138e-04   8.7265944e-06
 -9.4033039e-06   2.1071394e-06
  1.3320728e-05   1.2107314e-05
 -5.3507083e-05   1.6824919e-06
  9.7026805e-06   9.7616030e-06
  1.4732002e-04   4.2798742e-06
 -3.4587640e-05   1.1234409e-06
 -1.1572760e-04   1.2173096e-05
 -2.3835401e-04   5.2852879e-06
 -1.1762953e-04   5.1398952e-06
  3.8727627e-05   8.5012853e-06
 -5.4013068e-05   6.7260517e-06
 -6.1386811e-05   1.1316009e-05
  1.3430671e-04   1.0169419e-05
 -6.7987253e-06   1.3374955e-06
  1.2036494e-02   1.0265970e-05
  7.2149349e-05   1.0926599e-06
  1.3054834e-05   3.9821175e-06
 -1.0860711e-04   1.4491372e-05
 -2.7944854e-05   7.6811157e-06
  1.2446227e-04   4.9619780e-06
 -2.8638300e-05   5.7530192e-06
 -9.0454312e-05   8.6298833e-06
 -1.5433774e-05   7.5114997e-07
  2.1963858e-04   1.3328633e-05
 -6.3016325e-01   4.9729429e-06
  1.8687561e+00   5.2161558e-06
  4.1018765e-02   3.0857592e-07
  1.9469239e+00   6.0737568e-07
 -1.0733092e-03   5.5145510e-06
  1.1676754e+00   3.0563585e-06
  7.4334723e-01   3.4655139e-07
 -1.1884509e+00   5.2478877e-06
 -1.7590240e+00   6.7791084e-06
 -3.7727867e-05   2.5796460e-06
  7.3622105e-05   1.0135924e-05
 -8.4269390e-04   8.9520705e-07
 -2.2423912e-03   5.3048907e-06
 -2.1793623e-05   5.0785884e-06
  1.2259399e-01   7.1972659e-06
 -1.2159239e-07   7.4533532e-06
  5.3784166e-05   3.6732959e-06
 -4.3224668e-04   3.0305341e-06
 -1.0436872e+00   6.4920135e-07
 -8.3513762e-05   4.8108404e-06
 -1.5062932e-04   1.1635723e-05
  1.5916843e-04   1.0869682e-05
 -4.2346281e-05   5.1561756e-06
  2.0424291e-04   3.7911871e-06
  2.0294139e-02   6.1885967e-06
  5.0299738e-02   4.0024784e-06
  4.8677855e-05   3.0284646e-06
 -1.5353714e-04   5.3169756e-06
 -1.2383313e-04   6.7391366e-06
  3.2397813e-05   4.6371479e-06
 -7.1994218e-06   4.1993771e-06
  6.4605028e-06   7.4008117e-06
  1.4074559e-05   5.9833237e-06
  7.4038959e-05   1.0818871e-05
 -8.1117862e-01   3.3641250e-06
  2.1471494e-04   6.6584789e-06
 -1.6616033e-04   9.5269270e-06
  5.8761361e-07   1.0022926e-06
 -5.9837946e-03   1.6943059e-06
 -7.2826076e-01   1.9004126e-06
 -4.6954363e-05   4.7361536e-06
  2.7399246e-05   6.1636738e-06
  2.6573856e-05   3.1794159e-06
 -1.6601471e+00   1.4046292e-06
 -1.9969752e-01   1.5635790e-06
 -2.0182351e-04   1.4023502e-06
  1.2833970e-04   1.2567056e-05
 -2.1348739e-04   1.7040526e-05
  9.5197080e-05   5.2948812e-06
 -3.4206885e-05   4.2806259e-06
 -2.5008183e-05   8.0377922e-06
 -2.6422300e-05   1.4507482e-05
  5.3202204e-04   1.4700155e-05
 -4.3661694e-06   9.2833689e-06
 -1.2416743e-04   1.4236052e-05
  7.2608404e-05   1.1819291e-06
 -2.3995102e-05   2.7782810e-06
  8.5321954e-05   2.6818038e-06
 -1.6499798e-01   2.1428013e-05
  1.9820705e-02   1.6926658e-06
  2.4621475e-02   6.4908681e-06
 -1.9854171e-05   2.6360363e-05
  7.5036412e-05   1.8012883e-05
 -1.7601524e-04   5.3517027e-07
  1.7257737e-05   1.7004093e-05
 -8.4964777e-06   4.2044458e-06
  1.9231456e-05   7.7489913e-06
  3.6451199e+00   1.6047570e-05
  7.8066114e-05   1.8355948e-06
 -5.0222479e-06   1.1322920e-05
 -3.1888388e-02   1.4002984e-05
 -3.6475984e-05   9.0691819e-06
  4.3866134e-05   1.3867775e-06
 -2.0853811e-04   7.2618186e-06
  4.3810029e-05   1.2080529e-06
 -1.9558218e-04   1.3437638e-06
  4.5689623e-05   5.7078546e-06
  1.3825569e-04   3.4840605e-06
  7.7024692e-05   1.3251246e-05
 -5.1668441e-05   2.5693600e-06
 -1.5240783e-04   5.6233089e-06
 -2.0490124e-06   8.1171419e-07
  4.3371529e-06   1.3358998e-06
  5.2538911e-05   1.7591614e-05
 -1.9204740e-04   2.0604693e-06
  2.5527149e-01   5.1599914e-06
 -5.5829783e-05   1.7543864e-05
 -8.9423222e-05   9.4795914e-06
  3.9354458e-05   3.2168282e-06
  2.5879446e-04   1.2400270e-05
  3.9659903e-05   1.1996589e-05
  2.3151018e-05   2.6452938e-06
 -3.4954453e-05   1.1548503e-05
  2.8362272e-05   4.5531460e-06
 -5.8722770e-05   7.9043039e-06
  5.4074633e-05   2.6029244e-05
  2.2733342e-05   1.3184321e-06
  6.1064027e-04   9.4120205e-06
 -5.0318886e-06   1.7983538e-06
  3.5052813e-05   4.5505162e-06
  7.5306103e-05   9.1640732e-06
 -6.9351518e-05   2.0917709e-05
  1.8747652e-06   6.1566670e-06
 -3.2057917e-05   1.0711345e-05
 -2.1808162e-02   1.8311919e-05
 -6.0717026e-05   1.6071862e-06
  9.2323600e-05   1.1390235e-05
 -2.6035787e-05   2.1009093e-05
  1.9298627e+00   9.7259590e-07
 -6.2244588e-01   4.6181515e-07
  6.1978507e-01   2.9344367e-06
  2.6674550e+00   7.8325024e-07
 -7.8260791e-01   3.1152979e-06
 -2.1502104e+00   1.2887776e-06
 -3.2081819e+00   8.8319041e-07
 -2.8259683e-01   8.1169367e-07
 -3.2782976e-02   1.3437277e-06
  7.4089807e-01   1.2053617e-06
 -5.3235823e-03   3.3045239e-06
  1.3048454e-03   9.6113681e-06
 -3.4798419e-01   1.8697197e-06
  1.7137934e-02   5.0269850e-06
 -2.5607253e-05   7.0467087e-07
 -1.6026284e-03   1.9380925e-06
 -5.4401094e-01   1.0946476e-06
  1.9318442e-01   2.7736808e-06
  3.2543883e-01   1.5990940e-06
  1.9632223e-01   8.0360523e-06
  2.8655862e-05   3.4463856e-06
  1.7481682e+00   2.4346034e-06
 -4.1452862e-04   7.8307693e-07
  6.5159845e-01   3.4272989e-06
  1.6021186e-04   1.8668497e-06
  2.2713130e+00   2.7625026e-06
  4.3378046e-01   5.7547385e-07
  7.2162259e-01   4.3491054e-06
  1.6558984e-01   3.1151851e-06
 -2.9923403e-01   4.6567880e-06
 -8.4012616e-01   1.0365882e-06
  4.2988695e-02   3.9292604e-06
  1.2427739e+00   1.9140250e-06
 -2.2524702e-05   3.1354366e-06
  1.1329483e-02   1.2570662e-06
 -7.2825521e-02   1.6508588e-06
  8.8626833e-04   2.2758252e-06
 -1.2212702e-04   1.8262330e-06
 -2.1987488e-04   1.8073227e-06
 -5.5524588e-01   1.1281721e-06
  6.2568337e-02   4.0697983e-06
  3.8954979e-05   1.0615086e-06
 -1.0717833e-01   5.3955491e-06
  6.7311376e-01   4.8439830e-07
 -9.0232742e-01   1.4405374e-06
 -1.2447294e-05   3.4835827e-07
 -8.6659542e-04   1.5747511e-05
  8.2957202e-05   4.0414429e-06
  2.7190454e-05   1.0833791e-05
 -2.9870516e-04   9.1466327e-06
 -4.9617440e-05   2.1257863e-06
  1.5921893e-05   4.2506290e-06
  5.4787952e-01   5.8800147e-06
  1.0654150e-04   3.4427244e-06
  1.8252650e+00   3.3946358e-06
 -1.8719603e+00   3.0568583e-06
 -8.8985932e-01   9.8337648e-07
 -1.9171060e+00   1.7449364e-07
 -6.4516134e+00   1.7292975e-06
  1.1238741e+00   1.7133481e-06
  4.2669516e+00   2.8378013e-06
  3.9558610e-01   4.1259127e-06
 -4.1841297e+00   9.2827543e-07
  7.5234348e-01   3.5393264e-06
 -3.1974344e+00   5.7201787e-06
 -2.3894067e-01   5.7920315e-06
 -4.1136163e-01   1.0832485e-05
 -1.3009920e+00   6.1977726e-06
 -2.8608271e-01   5.3755457e-07
 -2.1715368e-01   7.0002911e-06
  1.7149409e+00   2.0846126e-06
 -7.5848274e-02   2.2801354e-05
  2.6275769e-03   1.0239342e-05
 -9.2644620e-01   7.0514529e-06
 -2.5715164e-05   8.6356222e-06
 -1.2884542e-04   9.0946878e-06
 -6.6277206e-01   8.9250389e-06
 -5.7587542e-05   3.6318993e-06
  1.2802198e-05   6.9469124e-06
 -1.8165052e+00   1.3459403e-05
  1.4248320e-03   8.1564112e-06
  1.0191367e-04   3.4779885e-06
 -3.9209214e-01   1.7676730e-05
 -7.5077641e-01   1.2624572e-05
 -2.7827302e-01   2.7353956e-06
 -3.0267689e-01   6.6490088e-06
 -7.9412351e-04   7.4171811e-07
 -1.5655614e-02   1.1858333e-05
 -7.3392487e-01   2.3559664e-06
 -3.6791211e-05   6.3957209e-06
  7.3650495e-05   6.0983302e-06
 -1.5514579e+00   1.1935624e-05
 -3.5199720e-02   2.9876317e-05
  1.5580930e-02   4.7117105e-06
 -1.0896460e+00   4.5836532e-06
 -5.2406255e-02   1.0664022e-05
 -7.7162839e-02   1.0834909e-05
 -4.5520487e-01   1.2085011e-05
 -2.4737050e-05   9.9074043e-07
  3.1810425e-05   2.9614537e-07
 -5.4911150e-05   1.0570233e-05
 -1.5250957e-05   1.9706267e-06
  7.5432396e-04   6.3662526e-08
  1.4155918e-04   1.2159448e-05
  3.2823693e-05   7.5665043e-06
  4.8793463e-05   9.0680296e-06
 -1.3863628e-05   9.0513440e-06
  1.7683115e-04   9.9929857e-06
 -1.0871198e+00   6.5233030e-07
  1.3916968e+00   4.8751190e-07
  1.7575464e+00   1.5292223e-06
  6.6530973e-01   4.2352039e-07
 -1.7516075e+00   2.3678061e-07
  2.2591043e+00   5.5105988e-07
  1.7677528e-01   1.6654498e-07
  9.8273748e-01   5.2837265e-07
 -7.9367489e-01   1.6610115e-06
  2.2576916e+00   1.1271368e-06
 -7.2682065e-01   2.2046333e-06
 -1.3927778e+00   3.3477888e-06
  2.2633457e-04   2.0151990e-06
  4.9440381e-01   2.5900133e-06
  4.3585128e-01   3.2999515e-06
 -2.2621574e-01   3.9189449e-06
 -6.4649668e+00   6.0984792e-07
  9.8067337e-01   3.0503845e-06
  1.4312365e+00   6.0899254e-07
  5.9165376e-01   2.2481581e-06
 -4.8927423e-01   8.3405766e-06
 -1.2463728e+00   1.9982897e-06
  9.2110175e-01   2.8257691e-06
  3.2114968e+00   3.2096043e-06
 -2.4195297e+00   4.2012721e-06
 -2.9594243e+00   1.1055814e-06
  7.4492186e-01   1.9648185e-06
  8.8349879e-01   4.9410096e-07
 -1.5013461e-03   2.4204387e-06
  7.0337594e-02   2.6242347e-07
 -9.9164081e-01   1.0653266e-06
 -1.8200536e+00   2.9847131e-06
  1.2306539e+00   5.3987460e-06
 -1.1773691e+00   6.1598280e-06
 -2.5775194e-01   4.9055853e-07
 -3.2045813e-05   1.0039051e-06
  8.2438415e-01   4.0432901e-06
 -2.8346360e-02   2.5926549e-06
  9.1412142e-07   2.2536690e-06
 -8.8201962e-02   8.2329319e-07
 -1.0050750e+00   1.5801844e-06
  1.0175710e+00   3.1685854e-06
 -5.8308238e-01   6.8877273e-07
  1.9335082e-01   1.1136661e-06
  1.3607377e-04   2.3643068e-07
  2.8644274e-05   1.7429247e-06
 -5.1256855e-05   1.6097321e-05
  9.2346739e-04   1.1985298e-05
 -1.1051356e-04   1.5965488e-05
  2.7102543e-04   7.1815939e-06
 -8.5699648e-05   8.3100913e-06
 -5.1186299e-01   4.4845583e-06
 -3.7586628e-04   5.8253895e-06
  2.6886072e-04   8.4817921e-06
  7.9132318e-01   9.2479786e-07
  2.3106565e+00   1.6966790e-06
 -8.4658131e-02   7.6453432e-07
 -7.1975821e-01   1.0391260e-06
 -6.7495205e-02   1.0313393e-06
  7.3927635e-01   3.0294236e-06
  8.0955692e-02   1.4741978e-07
 -2.8044410e+00   7.2416003e-07
 -3.4781116e-01   2.7078252e-06
 -3.3502724e-02   2.0647285e-06
 -1.9407529e-01   4.1835997e-06
 -3.2778812e-04   3.8011171e-06
  9.2622645e-02   3.4573409e-06
 -1.6393651e+00   1.1376987e-06
  2.4290818e-04   7.2234629e-06
  3.8330830e-04   1.8927022e-06
  5.0229317e-01   2.4905191e-06
  1.1458369e-04   2.1357525e-06
 -1.4769014e+00   1.4361899e-06
 -1.9306664e-01   5.2387313e-06
 -2.2100504e-01   3.2105092e-06
 -5.3839606e-01   2.7454562e-06
 -4.7165430e-01   1.7748793e-06
 -1.9002508e+00   9.3682888e-07
 -9.4389075e-01   2.7896310e-06
 -8.9414173e-01   3.1430129e-06
 -2.0655482e+00   1.1350774e-06
 -9.1695085e-02   3.2827336e-06
 -3.8389143e-01   1.0610021e-06
  4.9272105e-01   7.5168464e-06
  6.6561863e-04   5.8078836e-06
 -1.1957305e-02   1.0096324e-05
 -1.3187297e-05   3.3516969e-06
  2.8780481e-04   4.8026013e-06
 -7.0368451e-01   9.7495263e-07
 -3.7546828e-01   8.0895688e-07
 -4.5743272e-02   5.2733873e-07
 -1.0239828e-03   2.6596977e-06
  2.3771026e-05   1.2208720e-06
 -2.1326063e+00   5.8478946e-07
  4.6153134e-04   4.0806408e-06
  3.8286990e-01   3.0150293e-06
 -6.9800983e-03   1.1008376e-06
 -7.2129619e-01   7.0467468e-07
 -5.5991954e-01   9.3288094e-07
 -1.8090557e-05   4.7917655e-07
  1.6723442e-06   1.4258074e-05
  9.9445274e-04   3.8614303e-06
 -1.3605162e-04   1.9044102e-05
 -2.3630237e-04   5.4509005e-06
 -6.3819803e-02   4.1688163e-06
 -8.6347193e-01   4.6402340e-07
 -7.2787833e-01   1.6522665e-05
 -7.4823163e-02   4.2771144e-06
 -1.0129356e-01   1.6370357e-05
  5.7393860e-04   2.3838481e-06
  1.8811370e-04   2.4360817e-05
  1.1477507e+00   6.5175072e-07
  6.3908868e-05   7.3566689e-06
 -3.2208180e-01   3.1613508e-06
  2.7999446e+00   9.9578153e-07
  5.8525049e-05   3.2957657e-06
  1.1791592e-05   8.0285026e-06
  1.4664070e-04   3.5072660e-06
  9.0275884e-01   7.7214554e-06
  4.0316581e-06   3.4131156e-06
  4.4488081e-01   6.1108985e-06
  1.2357120e-02   3.6838094e-06
  2.5445588e-05   8.8707320e-06
  5.3431679e-05   5.3085710e-06
  8.2482177e-01   7.9309558e-07
  5.8587798e-06   1.0490009e-05
 -2.0982418e-06   2.5018023e-06
  3.2387953e-04   8.6726923e-06
 -1.1167731e-04   6.8904005e-06
  9.4079594e-05   9.9603876e-06
  1.5890982e-02   2.5390698e-05
  7.3857227e-05   2.0436728e-06
 -1.4091318e-04   4.1877961e-06
  4.4692865e-01   9.6422582e-06
  1.1335983e-04   2.3005152e-05
  4.9551021e-05   1.0234407e-05
  1.4033781e-04   4.8905636e-06
  3.1761952e-06   2.1269195e-06
 -6.5532164e-05   5.0056733e-06
 -1.3741888e-03   3.4181999e-06
  9.5826159e-05   4.4796893e-06
  2.0577988e-06   6.3928337e-06
 -4.7718249e-06   5.4050188e-06
  3.1650463e-05   2.3768721e-06
 -9.3509720e-05   4.3984201e-06
  6.1480489e-05   1.9671941e-06
  1.4495604e-04   1.2270312e-06
  1.7130654e-04   9.1836655e-06
 -1.1716977e-04   1.0019282e-05
 -4.7518951e-01   5.8139347e-09
 -2.0598385e-03   5.5994942e-06
 -6.0405422e-05   3.2242413e-06
 -7.4051255e-05   5.7925672e-06
  8.1721664e-05   1.8344284e-07
 -3.1302776e-04   5.5728265e-06
 -7.1868214e-08   5.0251006e-06
 -2.9357356e-05   4.4284150e-07
  1.4942557e-04   8.0891868e-06
  3.5602070e-04   1.7176971e-07
  9.1503343e-06   1.0735431e-05
 -5.6611648e-04   5.1975538e-05
 -1.6046632e-05   2.9040943e-05
 -2.9561837e-04   1.1641560e-05
  2.2818630e-04   1.4117569e-05
  2.4820541e-04   1.7473490e-06
 -3.9977120e-05   1.5202318e-05
 -5.9404079e-05   1.4515978e-05
  2.8774930e-05   1.6271924e-05
 -1.1182962e-04   1.1573810e-06
  3.7377937e-05   1.1007950e-08
  1.2610105e-04   2.1543381e-05
  7.8108555e-05   2.6027617e-06
  8.3667386e-05   2.5673321e-06
 -1.9867364e-06   4.2763222e-06
 -2.3634495e-05   1.6341543e-06
  2.5467950e-04   1.1732986e-05
 -3.7504833e-05   2.7626083e-05
 -3.7519993e-07   4.1461708e-06
 -7.5635195e-05   1.3609329e-05
 -3.1938023e-05   3.3800252e-06
  9.3234681e-05   3.1808452e-07
 -3.0910880e-05   1.9392850e-05
 -3.6329766e-05   8.0847476e-06
 -6.1150531e-05   3.5439323e-06
  8.1895603e-05   3.9837360e-06
 -1.5898357e-05   3.8006401e-06
 -8.3444393e-05   5.2142500e-06
  4.4627322e-05   5.7814045e-06
  5.8861464e-05   1.3569875e-06
 -1.3331814e-04   2.7949391e-06
  1.0887593e-05   7.3414008e-06
  8.0292055e-05   1.2062930e-05
 -1.3497412e-04   1.4284285e-05
  2.9576286e-05   1.3472690e-05
 -5.1524239e-05   1.1042847e-05
 -2.9728999e-05   1.4850565e-06
 -3.8989161e-05   8.7783206e-07
 -8.3892468e-05   5.8312480e-06
  1.9721056e-05   3.2605524e-06
  1.0061849e-04   4.6845430e-06
  1.3990548e-05   7.0235382e-07
 -1.0583675e-04   7.3973465e-06
  6.4354914e-05   3.8819917e-06
 -3.9470062e-05   7.3793785e-06
 -5.7271455e-04   3.9212270e-07
 -4.4294124e-05   1.3059474e-05
  7.9691963e-05   8.8692914e-06
  9.6540265e-05   3.5055507e-06
 -7.4215008e-05   1.1837705e-05
 -7.9146092e-05   1.3554662e-05
  3.8858321e-05   1.8172497e-05
  1.4403611e-05   4.3771156e-06
 -4.8227352e-04   1.3768055e-06
  8.4946230e-05   1.1175967e-05
 -1.4593729e-05   1.9515458e-07
  6.7244109e-06   3.1295681e-06
  4.3095775e-02   4.2619304e-06
 -4.6120292e-01   8.9106234e-06
  5.6832847e-05   1.9178979e-06
  7.6105498e-04   1.1086577e-06
 -9.8018863e-06   6.1445048e-06
 -2.2227972e-04   6.7438323e-06
  5.1475763e-01   9.6176800e-06
 -2.6988176e-01   1.6355560e-05
  1.2885228e-01   4.9401738e-06
 -5.8361607e-06   5.2103642e-06
 -1.8690875e-05   4.0265772e-06
 -1.3203245e-04   1.3454087e-05
  1.4665773e-05   4.7188832e-06
  4.8662782e-01   1.1975932e-05
  4.3092099e-05   5.8797200e-06
  2.1077433e-04   4.4522594e-06
  1.2957540e-04   5.9729032e-06
  1.1318524e-04   3.3406825e-06
  1.6387870e-05   4.2818392e-06
 -8.2483086e-05   3.2825035e-06
  6.7218454e-05   7.8719095e-06
 -6.0626931e-05   1.0505457e-05
  8.5040250e-05   1.3373637e-05
  3.1015818e-05   5.0407966e-06
  5.3908268e-05   1.1607104e-05
 -2.7873382e-05   9.7022248e-06
 -3.0377755e-06   2.8133484e-06
  2.8340213e-04   1.4841535e-07
  1.2288997e-03   1.8447727e-07
 -1.7706394e-04   2.7107781e-06
 -3.4660547e-06   3.0630508e-06
 -1.8373763e-05   4.6071982e-06
  6.2628053e-05   2.4695426e-06
  3.9663460e-05   8.1031430e-06
  1.6574493e-01   4.9947826e-06
  3.3837321e-05   1.7423014e-06
 -7.4842260e-06   8.4529147e-06
 -1.5956438e-04   2.1596065e-06
  7.2098199e-05   1.8463312e-06
 -1.0892419e-03   1.8459220e-06
 -5.9723323e-05   3.3120859e-06
  2.0743801e-05   1.9782926e-06
 -2.4753058e-01   8.4410121e-06
 -4.3663301e-04   2.1685412e-06
 -1.8437181e-04   8.8166380e-06
  5.0718067e-05   6.2656081e-06
  4.0650033e-05   7.4604286e-06
  7.0868315e-05   1.8969138e-05
  4.7728608e-05   4.0481182e-06
 -8.6202554e-06   9.6384483e-06
  1.1114292e-03   3.1474246e-07
 -4.7279440e-04   6.1284317e-07
  2.1849413e-05   1.3611326e-06
 -8.5347441e-05   1.4330076e-06
 -2.2203334e-05   6.8410927e-06
 -3.4563302e-05   1.6317781e-06
  6.7074162e-01   1.3599885e-05
  2.9417791e+00   4.9371334e-05
  4.5263846e-06   6.7411961e-06
 -1.2156453e+00   1.9772417e-06
  7.7357489e-01   1.3076121e-06
 -3.8832146e-05   8.0193058e-06
 -6.7907939e-05   1.4291397e-05
 -5.7760895e-05   1.2379827e-05
  1.8327987e-04   1.5040416e-06
 -1.7443512e-04   8.7731078e-06
 -3.9257804e-05   7.2915509e-06
  3.1975517e-01   3.1277866e-06
  4.6506797e-05   4.4655540e-06
 -6.6569111e-05   1.2421679e-06
 -2.5844870e-03   3.0074261e-06
  6.8224683e-05   4.1997114e-07
  9.5355117e-06   1.9678757e-05
  7.3262886e-06   2.0691757e-06
  4.2660071e-05   5.1794004e-06
  5.6570105e-05   5.8772530e-06
  4.6448531e-05   1.0189473e-05
  2.6752403e-05   2.0069636e-05
  6.7860557e-05   7.6206925e-06
 -1.3953500e-05   1.6092704e-06
 -5.6334784e-06   1.5232760e-05
  5.7996990e-06   7.0406304e-06
  6.3777814e-05   9.9050203e-06
 -1.3120174e-05   3.0400513e-06
  7.4213800e-05   1.0893045e-05
  1.6177208e-04   7.4359818e-06
 -1.8414130e-05   2.6761734e-05
  4.4733279e-05   1.2302913e-05
 -2.1693646e-05   1.4214516e-05
  1.7729393e-04   1.0860810e-05
  6.9292396e-06   1.4532794e-05
 -3.4134286e-05   7.9586907e-06
  1.1728122e-04   7.6296428e-06
 -2.7792941e-05   8.7401105e-07
  1.6105936e-04   2.2025748e-05
  1.1326805e-04   1.8370878e-05
 -3.8704202e-05   2.2410884e-06
 -8.2194665e-06   1.2362344e-06
 -7.6574710e-05   5.9539775e-06
  1.4815114e-04   9.4967014e-08
 -2.4343751e-04   1.6848524e-05
  1.5238588e-05   5.3236204e-06
 -3.7043217e-06   1.1897133e-05
  5.6300723e-05   1.1274409e-05
 -2.1716510e-04   9.0591293e-06
  1.3479827e-05   1.0358813e-05
  2.1804629e-04   9.3752305e-06
 -5.5381133e-05   3.8533435e-07
 -1.9434168e-05   4.9535352e-06
  1.1710429e-05   5.8873816e-06
  8.6318660e-06   5.8044934e-06
 -4.3847445e-01   2.0779573e-06
  2.5352872e-05   3.5803851e-06
 -8.6349982e-01   7.0339784e-06
 -5.7201761e-01   1.0633194e-05
  6.5263949e-04   3.0295598e-06
  3.5229175e-05   1.4562634e-06
 -4.6931738e-05   1.5761736e-05
  8.8337059e-05   7.6722627e-06
  3.3160188e-04   2.0171217e-06
 -3.1018182e-05   8.6589380e-06
 -2.8244311e-01   2.6027842e-06
 -1.0918731e-04   4.2500710e-06
  1.0480561e-04   3.3602078e-06
 -1.2045013e+00   1.6075011e-06
 -7.2842238e-05   9.4701772e-06
  1.4501569e-04   1.4623522e-06
  9.6659005e-06   1.5311010e-05
  1.2063999e-06   1.0352560e-05
  2.8106013e-05   3.3706874e-06
 -3.1829150e-05   1.6128704e-05
 -1.0262227e-04   3.5606972e-06
  5.1106650e-05   1.0249180e-06
 -1.4126273e-04   6.9022203e-06
  4.4099826e-05   5.0983613e-06
 -1.5515674e-04   1.0793867e-05
 -1.2958446e-05   6.9821572e-06
  1.5433009e-04   5.8330488e-07
 -3.3116336e-05   5.3920585e-06
  1.0010810e-04   3.4955769e-06
 -4.1387619e-05   5.1510788e-06
  1.2343843e-04   4.4238432e-06
 -6.1733585e-02   6.6568232e-06
 -2.5661182e-05   9.0819622e-06
 -3.8662907e-05   1.0721612e-05
  1.1374289e-04   7.7616386e-07
  2.1899049e-04   2.3035312e-07
  3.7801007e-04   5.7074503e-06
 -3.6158883e-05   8.3941186e-06
 -2.3150054e-05   3.5540122e-06
  1.8008516e-06   1.4036041e-05
  2.5554737e-05   1.1615165e-06
 -1.8457964e-05   5.4897214e-06
 -1.6497319e-04   5.9638905e-06
  2.6202022e-05   2.0384423e-06
 -1.6871225e-05   3.6168597e-06
  7.5537668e-05   9.7991660e-06
 -1.7111753e-04   1.0324281e-06
 -1.1043166e-05   2.4543842e-06
  1.0657840e-05   3.4324919e-06
 -3.2365711e-05   9.7641068e-06
 -2.3547838e-04   7.5159101e-06
 -5.8446745e-05   7.1982977e-06
 -2.1550350e-05   1.0756630e-05
  5.3976419e-05   1.1967003e-06
 -4.0837396e-02   4.8491702e-06
  7.4858908e-05   7.2796279e-06
 -2.4542131e-05   8.0553036e-06
 -2.5110641e-01   1.3998467e-05
  1.1397326e-05   8.2469860e-06
  5.0918858e-05   2.5050199e-06
 -1.6376707e-05   1.5968990e-05
  2.5803964e-05   1.1191822e-05
 -4.1024887e-05   1.1053921e-05
 -7.0083767e-01   1.2725121e-05
 -1.1706734e+00   1.0029784e-07
  6.8408081e-06   4.9015794e-06
 -1.2143774e-04   1.1599648e-05
 -8.0999795e-05   9.5263813e-06
  1.5883382e-04   8.7657290e-06
 -6.8862464e-05   3.3415574e-06
  4.5720248e-05   1.8100105e-05
  4.4339355e-05   1.8269875e-05
 -2.4729543e-05   1.3914726e-05
 -1.9521257e-04   1.4832475e-05
  1.6180177e-04   1.7850763e-05
 -3.0372015e-04   3.6396307e-06
 -1.9302827e-04   1.7140650e-05
 -2.0784935e-05   1.3575846e-06
 -7.4754986e-05   4.6370137e-06
 -1.0222377e-05   6.5060863e-06
 -2.0351399e-05   7.2725420e-06
 -1.2069694e-04   4.4461785e-07
  1.0036657e-04   1.2024691e-05
 -8.7933091e-04   4.9397175e-07
 -6.2664185e-05   1.0881768e-05
 -8.7346692e-05   1.2720619e-05
 -5.3245523e-05   8.8880770e-06
  5.4835244e-05   1.3742799e-06
  4.5599422e-06   9.2184555e-06
 -9.9427380e-06   1.0661359e-05
  1.2995987e-04   8.5166812e-06
 -4.7047477e-05   1.2814935e-05
  1.4888948e-04   6.5740130e-07
  2.7102726e-05   1.2781976e-05
 -9.8747194e-05   6.6190923e-06
 -3.7745619e-06   6.7747865e-06
 -4.2195126e-04   3.5835558e-06
  5.7690017e-05   1.5898478e-06
 -1.6830306e-04   1.1203423e-05
 -1.1098759e-04   2.2246627e-06
  9.8172222e-06   1.1537599e-05
  6.7379726e-05   3.7110456e-06
  3.3191282e-05   5.1981956e-06
  5.7803816e-05   4.9405180e-06
  2.7723989e-05   6.3686298e-06
  3.5039940e-01   1.0431779e-06
 -3.2463419e+00   1.4667555e-06
 -1.7690912e-02   2.2809115e-06
 -5.0176322e-01   8.1544414e-07
  1.1402582e-02   2.1519686e-06
  3.4583291e-01   8.8593470e-07
 -8.7708646e-01   4.8540289e-07
 -1.7363499e+00   7.1128090e-07
 -3.3567265e-01   1.7898894e-06
  8.9966422e-03   1.9496781e-06
 -6.6114712e-06   3.0458204e-06
  1.4191839e-05   1.2255323e-05
  3.2583773e-04   3.1261661e-06
  4.1375884e-01   3.3152141e-06
 -5.3652067e-02   5.2457758e-06
  3.6523691e-01   4.2978636e-06
  2.2233391e-01   1.7828806e-06
  2.4292707e-01   3.0894032e-06
 -7.5984344e-02   5.6220648e-07
  9.8741400e-01   2.1844167e-05
  9.1871472e-05   4.0908603e-06
  4.8864606e-01   5.3933695e-06
 -2.4721631e-01   3.8741823e-06
 -1.4516574e-01   2.3125531e-06
  1.7247586e-04   3.2722171e-06
  5.0489753e-01   3.1707202e-06
 -1.6948746e-01   1.2024555e-06
 -1.0119199e+00   1.5429033e-06
  5.1273659e-02   2.7486039e-06
 -5.2351844e-02   8.5710662e-06
 -1.3287306e-01   3.8379196e-07
  4.6275824e-01   1.0904603e-05
  8.2371553e-05   2.2284510e-06
 -1.8260392e-06   8.1225817e-06
  9.0682849e-02   1.2826473e-06
  4.3555841e-01   1.0179344e-06
  1.7610738e-01   1.9331461e-07
  2.3924004e-01   6.6019845e-07
 -3.3600643e+00   4.1341355e-06
 -1.6762742e-01   1.7582129e-06
  8.9534951e-05   9.8362716e-06
  3.9475869e-02   4.2292227e-06
  1.1911564e+00   1.7535230e-06
  1.5838238e+00   1.4665602e-06
  1.5691745e-01   4.6243517e-06
 -1.5292010e-04   3.7930681e-06
 -4.0509141e-04   1.6006825e-05
 -5.5154869e-06   1.8161601e-05
  5.8091069e-03   9.1973398e-06
 -1.0943040e-04   1.2751506e-05
  5.0001756e-05   5.5704487e-07
  1.9894181e-02   7.0355791e-06
  8.3227493e-03   2.6165502e-05
  9.8781122e-05   3.5597177e-06
 -2.7071536e-01   1.3352877e-05
 -1.1289151e-04   5.8654007e-07
  8.1066205e-04   2.0869005e-05
  7.7279502e-01   1.3110931e-05
  1.6010867e-04   1.0079775e-06
 -9.7485769e-01   3.9472998e-06
  2.5425258e+00   1.1095768e-05
  1.4451708e-04   6.7917758e-06
  1.5623680e-05   5.5636638e-06
 -2.3393530e-05   7.8845829e-07
 -1.7557873e-01   9.1594480e-08
 -4.0014915e-04   2.8765751e-06
  9.5352747e-02   2.9924848e-05
  3.9253035e-01   3.2963608e-06
  4.6484325e-05   9.3063081e-06
 -3.2591503e-05   4.8057032e-06
  2.2906363e+00   1.3843443e-05
 -2.4099263e-05   2.2119204e-06
 -8.7606133e-04   1.8906272e-05
  2.5955185e-01   1.6650189e-05
 -1.6377326e-05   5.5634896e-06
  1.7280609e-05   2.1160515e-05
  6.5627813e-01   1.4007052e-05
  6.6186495e-02   6.7295821e-07
  4.2153912e-05   1.2128462e-05
  7.8713512e-01   1.6641399e-05
  1.1276601e-04   9.4582663e-07
 -3.4064730e-04   9.2175702e-07
 -9.0164485e-07   2.2124945e-05
 -1.0483219e-04   1.1047184e-05
  5.6453664e-06   6.0842945e-06
 -3.0035146e-05   1.8212375e-05
 -3.1139294e-05   1.1035877e-05
  4.9881804e-05   6.0475696e-07
  3.7525806e-05   1.4205547e-05
 -4.0619037e-05   6.8996783e-06
 -2.0412348e-04   2.3599282e-06
 -4.9006445e-05   9.8239261e-06
  8.6154047e-05   9.7723459e-06
 -3.1300679e-05   1.4936541e-05
 -1.9481666e-04   6.0408515e-06
 -8.9046262e-02   2.0038355e-05
 -1.9150012e-03   7.7810137e-06
 -1.3149304e-04   8.8088655e-06
 -1.1684232e-05   2.3327428e-05
  1.8351533e-05   1.5627897e-05
 -4.4995402e-05   1.3079152e-05
  1.0721997e-04   1.0744422e-05
  1.0769986e-04   1.8470155e-05
  4.5205940e-02   9.5600430e-05
 -2.2940684e-04   6.2428267e-06
  5.1605442e-05   3.7094782e-05
 -1.0580987e-01   4.2883999e-05
 -3.4910452e-05   3.7011580e-06
 -1.8788884e-04   3.2354642e-06
  1.5102019e-06   1.5919949e-06
  2.3755247e-06   3.6479389e-06
 -5.0425797e-04   2.3583816e-06
  3.0835836e-05   9.5218429e-06
 -4.1631054e-05   7.3116212e-06
 -3.7763277e-01   4.3454088e-06
 -2.4851944e-04   2.8968989e-06
 -1.2673234e-05   3.7349668e-07
 -9.7936616e-05   1.4797769e-06
  5.6809651e-05   1.4298407e-05
  2.4047757e-05   1.0639404e-06
 -2.3594819e-04   1.3785218e-06
 -1.2793850e-04   3.9821662e-06
  1.4487233e-04   3.0300657e-06
 -8.4619780e-05   3.0769324e-06
 -3.2769050e-05   1.2606455e-05
 -9.8360812e-05   6.0840362e-06
  1.0102642e-04   2.7721846e-06
  7.3587886e-05   5.8918040e-06
 -1.5337728e-05   1.6399463e-05
 -2.3450973e-05   8.3581845e-06
 -7.7274519e-05   2.8621109e-05
  1.3273713e-04   7.1516984e-06
  1.6362351e-04   4.5457068e-06
 -1.6313144e-05   3.9682450e-06
  4.7729085e-05   4.0665668e-06
 -5.8064520e-06   2.1455353e-06
 -4.2560288e-05   3.0883723e-06
 -9.8071083e-05   4.0091995e-06
 -4.0948638e-05   9.6958074e-06
  1.5626889e-06   7.1949722e-07
 -3.2236465e-05   1.9991094e-05
 -2.9947745e-04   5.7491400e-07
 -6.6727291e-05   1.7553709e-06
  1.8164314e-05   7.5789635e-06
 -2.8576127e-05   6.9175121e-06
 -9.5918722e-06   7.5194716e-06
 -1.2784229e-04   3.1214461e-06
  3.3565815e-05   7.8690528e-06
  2.2644790e-05   3.4480790e-06
 -8.6619322e-05   1.3219724e-05
  6.6734312e-05   4.9763339e-06
  4.0610402e-04   1.8938413e-06
 -1.7722767e-05   1.0354306e-06
 -2.3794481e-05   3.4347818e-06
  8.9240042e-05   8.4185931e-06
  9.0150628e-05   1.2421259e-05
 -2.7319253e-05   7.8281410e-06
 -3.3656757e-05   1.1632129e-05
  2.4389077e-05   6.6039424e-06
 -3.6463520e-04   2.2985034e-06
  2.6027480e-04   1.5573632e-05
 -7.8290970e-05   4.6435971e-06
  1.3322300e-04   1.0278392e-05
 -1.9193960e-05   9.5056630e-06
 -2.4285761e-04   1.9532410e-05
 -1.4898304e-05   1.2835584e-05
 -5.5226890e-05   2.6124994e-06
 -8.1370654e-06   1.7869394e-05
  6.1051660e-06   6.5490312e-06
 -4.3381500e-05   1.1644964e-05
  9.5970965e-05   1.5516003e-06
 -1.2644312e-04   3.2754824e-06
 -2.8658516e-05   1.6764603e-05
  1.5710031e-04   1.2911884e-06
 -1.5688140e-04   1.3210929e-05
  5.6880626e-06   1.1419334e-05
  4.6623962e-05   4.9307782e-06
  1.7117750e-04   4.4010058e-06
 -8.5595777e-05   8.7595508e-06
 -5.0278093e-05   1.3255681e-05
  1.4534053e-04   4.9932460e-06