
***************************************************************
*                 Welcome to use GPUMD                        *
*    (Graphics Processing Units Molecular Dynamics)           *
*                     Version 3.5                             *
*              This is the nep executable                     *
***************************************************************


---------------------------------------------------------------
GPU information:
---------------------------------------------------------------

number of GPUs = 4
Device id:                   0
    Device name:             NVIDIA GeForce RTX 3090
    Compute capability:      8.6
    Amount of global memory: 23.6995 GB
    Number of SMs:           82
Device id:                   1
    Device name:             NVIDIA GeForce RTX 3090
    Compute capability:      8.6
    Amount of global memory: 23.6995 GB
    Number of SMs:           82
Device id:                   2
    Device name:             NVIDIA GeForce RTX 3090
    Compute capability:      8.6
    Amount of global memory: 23.6995 GB
    Number of SMs:           82
Device id:                   3
    Device name:             NVIDIA GeForce RTX 3090
    Compute capability:      8.6
    Amount of global memory: 23.6995 GB
    Number of SMs:           82
GPU-0 cannot access GPU-1.
GPU-0 cannot access GPU-2.
GPU-0 cannot access GPU-3.
GPU-1 cannot access GPU-0.
GPU-1 cannot access GPU-2.
GPU-1 cannot access GPU-3.
GPU-2 cannot access GPU-0.
GPU-2 cannot access GPU-1.
GPU-2 cannot access GPU-3.
GPU-3 cannot access GPU-0.
GPU-3 cannot access GPU-1.
GPU-3 cannot access GPU-2.

---------------------------------------------------------------
Started running nep.
---------------------------------------------------------------


---------------------------------------------------------------
Started reading nep.in.
---------------------------------------------------------------

Hello! I found your input (default) populaiton size is not divisible by total GPU numbers.
This causes some GPU resources wasted.
So I increased population size to 52. I hope you understand.
Input or default parameters:
    (default) train_mode = potential.
    (input)   use NEP version 4.
    (input)   number of atom types = 2.
        (default) type 0 (O with Z = 8) has force weight of 1.
        (default) type 1 (Si with Z = 14) has force weight of 1.
    (default) will not add the ZBL potential.
    (input)   radial cutoff = 6 A.
    (input)   angular cutoff = 4 A.
    (input)   n_max_radial = 8.
    (input)   n_max_angular = 8.
    (input)   basis_size_radial = 8.
    (input)   basis_size_angular = 8.
    (input)   l_max_3body = 4.
    (input)   l_max_4body = 2.
    (input)   l_max_5body = 0.
    (input)   number of neurons = 80.
    (input)   lambda_1 = 0.1.
    (input)   lambda_2 = 0.1.
    (input)   lambda_e = 1.
    (input)   lambda_f = 1.
    (input)   lambda_v = 0.1.
    (default) force_delta = 0.
    (input)   batch size = 10000.
    (input)   population size = 52.
    (input)   maximum number of generations = 200000.
Some calculated parameters:
    number of radial descriptor components = 9.
    number of angualr descriptor components = 45.
    total number of  descriptor components = 54.
    NN architecture = 54-80-1.
    number of NN parameters to be optimized = 8961.
    number of descriptor parameters to be optimized = 648.
    total number of parameters to be optimized = 9609.

---------------------------------------------------------------
Finished reading nep.in.
---------------------------------------------------------------


---------------------------------------------------------------
Started reading train.xyz.
---------------------------------------------------------------

Number of configurations = 2348.
Number of devices = 4
Number of batches = 1
Hello, I changed the batch_size from 10000 to 2348.

Batch 0:
Number of configurations = 2348.

---------------------------------------------------------------
Constructing train_set in device  0.
Total number of atoms = 205760.
Number of atoms in the largest configuration = 192.
Number of configurations having virial = 2348.
Radial descriptor with a cutoff of 6 A:
    Minimum number of neighbors for one atom = 4.
    Maximum number of neighbors for one atom = 136.
Angular descriptor with a cutoff of 4 A:
    Minimum number of neighbors for one atom = 2.
    Maximum number of neighbors for one atom = 48.
---------------------------------------------------------------


---------------------------------------------------------------
Constructing train_set in device  1.
Total number of atoms = 205760.
Number of atoms in the largest configuration = 192.
Number of configurations having virial = 2348.
Radial descriptor with a cutoff of 6 A:
    Minimum number of neighbors for one atom = 4.
    Maximum number of neighbors for one atom = 136.
Angular descriptor with a cutoff of 4 A:
    Minimum number of neighbors for one atom = 2.
    Maximum number of neighbors for one atom = 48.
---------------------------------------------------------------


---------------------------------------------------------------
Constructing train_set in device  2.
Total number of atoms = 205760.
Number of atoms in the largest configuration = 192.
Number of configurations having virial = 2348.
Radial descriptor with a cutoff of 6 A:
    Minimum number of neighbors for one atom = 4.
    Maximum number of neighbors for one atom = 136.
Angular descriptor with a cutoff of 4 A:
    Minimum number of neighbors for one atom = 2.
    Maximum number of neighbors for one atom = 48.
---------------------------------------------------------------


---------------------------------------------------------------
Constructing train_set in device  3.
Total number of atoms = 205760.
Number of atoms in the largest configuration = 192.
Number of configurations having virial = 2348.
Radial descriptor with a cutoff of 6 A:
    Minimum number of neighbors for one atom = 4.
    Maximum number of neighbors for one atom = 136.
Angular descriptor with a cutoff of 4 A:
    Minimum number of neighbors for one atom = 2.
    Maximum number of neighbors for one atom = 48.
---------------------------------------------------------------


---------------------------------------------------------------
Started reading test.xyz.
---------------------------------------------------------------

Number of configurations = 261.

---------------------------------------------------------------
Constructing test_set in device  0.
Total number of atoms = 23135.
Number of atoms in the largest configuration = 192.
Number of configurations having virial = 261.
Radial descriptor with a cutoff of 6 A:
    Minimum number of neighbors for one atom = 3.
    Maximum number of neighbors for one atom = 136.
Angular descriptor with a cutoff of 4 A:
    Minimum number of neighbors for one atom = 3.
    Maximum number of neighbors for one atom = 46.
---------------------------------------------------------------


---------------------------------------------------------------
Constructing test_set in device  1.
Total number of atoms = 23135.
Number of atoms in the largest configuration = 192.
Number of configurations having virial = 261.
Radial descriptor with a cutoff of 6 A:
    Minimum number of neighbors for one atom = 3.
    Maximum number of neighbors for one atom = 136.
Angular descriptor with a cutoff of 4 A:
    Minimum number of neighbors for one atom = 3.
    Maximum number of neighbors for one atom = 46.
---------------------------------------------------------------


---------------------------------------------------------------
Constructing test_set in device  2.
Total number of atoms = 23135.
Number of atoms in the largest configuration = 192.
Number of configurations having virial = 261.
Radial descriptor with a cutoff of 6 A:
    Minimum number of neighbors for one atom = 3.
    Maximum number of neighbors for one atom = 136.
Angular descriptor with a cutoff of 4 A:
    Minimum number of neighbors for one atom = 3.
    Maximum number of neighbors for one atom = 46.
---------------------------------------------------------------


---------------------------------------------------------------
Constructing test_set in device  3.
Total number of atoms = 23135.
Number of atoms in the largest configuration = 192.
Number of configurations having virial = 261.
Radial descriptor with a cutoff of 6 A:
    Minimum number of neighbors for one atom = 3.
    Maximum number of neighbors for one atom = 136.
Angular descriptor with a cutoff of 4 A:
    Minimum number of neighbors for one atom = 3.
    Maximum number of neighbors for one atom = 46.
---------------------------------------------------------------


---------------------------------------------------------------
Time used for initialization = 1.680000 s.
---------------------------------------------------------------


---------------------------------------------------------------
Started training.
---------------------------------------------------------------

Step    Total-Loss L1Reg-Loss L2Reg-Loss RMSE-E-Train RMSE-F-Train RMSE-V-Train RMSE-E-Test  RMSE-F-Test  RMSE-V-Test  
100     0.32259    0.03894    0.10069    0.00241      0.17812      0.02435      0.00247      0.19079      0.01981      
200     0.32259    0.03894    0.10069    0.00241      0.17812      0.02435      0.00247      0.19079      0.01981      
300     0.32259    0.03894    0.10068    0.00241      0.17812      0.02435      0.00247      0.19079      0.01981      
400     0.32259    0.03894    0.10068    0.00241      0.17812      0.02435      0.00247      0.19079      0.01981      
500     0.32258    0.03894    0.10068    0.00241      0.17812      0.02435      0.00247      0.19079      0.01981      
600     0.32258    0.03894    0.10068    0.00241      0.17812      0.02435      0.00246      0.19079      0.01981      
700     0.32258    0.03894    0.10068    0.00241      0.17812      0.02435      0.00246      0.19080      0.01982      
800     0.32258    0.03894    0.10068    0.00241      0.17811      0.02435      0.00246      0.19079      0.01982      
900     0.32257    0.03894    0.10068    0.00241      0.17811      0.02434      0.00246      0.19079      0.01981      
1000    0.32257    0.03894    0.10068    0.00241      0.17811      0.02434      0.00246      0.19079      0.01981      
1100    0.32257    0.03894    0.10067    0.00241      0.17811      0.02435      0.00246      0.19079      0.01981      
1200    0.32257    0.03893    0.10067    0.00241      0.17811      0.02434      0.00246      0.19079      0.01980      
1300    0.32256    0.03893    0.10067    0.00241      0.17811      0.02434      0.00246      0.19079      0.01980      
1400    0.32256    0.03893    0.10067    0.00241      0.17811      0.02434      0.00246      0.19079      0.01980      
1500    0.32256    0.03893    0.10067    0.00241      0.17811      0.02434      0.00246      0.19079      0.01981      
1600    0.32256    0.03893    0.10067    0.00241      0.17811      0.02434      0.00246      0.19079      0.01981      
1700    0.32255    0.03893    0.10067    0.00241      0.17811      0.02434      0.00246      0.19079      0.01981      
1800    0.32255    0.03893    0.10067    0.00241      0.17811      0.02434      0.00246      0.19079      0.01981      
1900    0.32255    0.03893    0.10067    0.00241      0.17811      0.02434      0.00246      0.19078      0.01981      
2000    0.32255    0.03893    0.10067    0.00241      0.17811      0.02434      0.00246      0.19079      0.01981      
2100    0.32254    0.03893    0.10066    0.00241      0.17811      0.02434      0.00246      0.19079      0.01982      
2200    0.32254    0.03893    0.10066    0.00241      0.17811      0.02434      0.00246      0.19079      0.01982      
2300    0.32254    0.03893    0.10066    0.00241      0.17811      0.02434      0.00246      0.19079      0.01983      
2400    0.32254    0.03893    0.10066    0.00241      0.17811      0.02434      0.00246      0.19079      0.01982      
2500    0.32254    0.03893    0.10066    0.00241      0.17811      0.02434      0.00246      0.19079      0.01983      
2600    0.32253    0.03893    0.10066    0.00241      0.17811      0.02434      0.00246      0.19079      0.01983      
2700    0.32253    0.03892    0.10066    0.00241      0.17811      0.02434      0.00246      0.19079      0.01983      
2800    0.32253    0.03892    0.10066    0.00241      0.17811      0.02434      0.00246      0.19078      0.01983      
2900    0.32253    0.03892    0.10066    0.00241      0.17811      0.02434      0.00246      0.19078      0.01983      
3000    0.32253    0.03892    0.10066    0.00241      0.17810      0.02435      0.00246      0.19078      0.01983      
3100    0.32252    0.03892    0.10065    0.00241      0.17810      0.02434      0.00246      0.19078      0.01983      
3200    0.32252    0.03892    0.10065    0.00241      0.17810      0.02434      0.00246      0.19078      0.01984      
3300    0.32252    0.03892    0.10065    0.00241      0.17810      0.02434      0.00246      0.19078      0.01984      
3400    0.32252    0.03892    0.10065    0.00241      0.17810      0.02434      0.00246      0.19078      0.01983      
3500    0.32251    0.03892    0.10065    0.00241      0.17810      0.02434      0.00246      0.19078      0.01983      
3600    0.32251    0.03892    0.10065    0.00241      0.17810      0.02434      0.00246      0.19078      0.01983      
3700    0.32251    0.03892    0.10065    0.00241      0.17810      0.02434      0.00246      0.19078      0.01983      
3800    0.32251    0.03892    0.10065    0.00241      0.17810      0.02434      0.00246      0.19078      0.01982      
3900    0.32251    0.03892    0.10065    0.00241      0.17810      0.02434      0.00246      0.19078      0.01983      
4000    0.32250    0.03891    0.10065    0.00241      0.17810      0.02434      0.00246      0.19078      0.01983      
4100    0.32250    0.03891    0.10064    0.00241      0.17810      0.02434      0.00246      0.19078      0.01982      
4200    0.32250    0.03891    0.10064    0.00241      0.17810      0.02434      0.00246      0.19078      0.01982      
4300    0.32250    0.03891    0.10064    0.00241      0.17810      0.02434      0.00246      0.19078      0.01983      
4400    0.32250    0.03891    0.10064    0.00241      0.17810      0.02434      0.00246      0.19078      0.01983      
4500    0.32249    0.03891    0.10064    0.00241      0.17810      0.02434      0.00246      0.19078      0.01982      
4600    0.32249    0.03891    0.10064    0.00241      0.17810      0.02434      0.00246      0.19078      0.01983      
4700    0.32249    0.03891    0.10064    0.00241      0.17810      0.02434      0.00246      0.19078      0.01983      
4800    0.32249    0.03891    0.10064    0.00241      0.17810      0.02434      0.00246      0.19078      0.01983      
4900    0.32249    0.03891    0.10064    0.00241      0.17810      0.02434      0.00246      0.19078      0.01983      
5000    0.32248    0.03891    0.10063    0.00241      0.17810      0.02434      0.00246      0.19078      0.01983      
5100    0.32248    0.03891    0.10063    0.00241      0.17810      0.02434      0.00246      0.19078      0.01984      
5200    0.32248    0.03891    0.10063    0.00241      0.17810      0.02434      0.00246      0.19078      0.01983      
5300    0.32248    0.03891    0.10063    0.00241      0.17810      0.02433      0.00246      0.19078      0.01983      
5400    0.32248    0.03890    0.10063    0.00241      0.17810      0.02434      0.00246      0.19078      0.01983      
5500    0.32247    0.03890    0.10063    0.00241      0.17809      0.02434      0.00246      0.19078      0.01984      
5600    0.32247    0.03890    0.10063    0.00241      0.17809      0.02434      0.00246      0.19078      0.01984      
5700    0.32247    0.03890    0.10063    0.00241      0.17809      0.02434      0.00246      0.19078      0.01984      
5800    0.32247    0.03890    0.10063    0.00241      0.17809      0.02434      0.00246      0.19078      0.01984      
5900    0.32247    0.03890    0.10063    0.00241      0.17809      0.02435      0.00246      0.19077      0.01985      
6000    0.32246    0.03890    0.10063    0.00241      0.17809      0.02434      0.00246      0.19077      0.01984      
6100    0.32246    0.03890    0.10062    0.00241      0.17809      0.02435      0.00246      0.19078      0.01984      
6200    0.32246    0.03890    0.10062    0.00241      0.17809      0.02435      0.00246      0.19078      0.01984      
6300    0.32246    0.03890    0.10062    0.00241      0.17809      0.02434      0.00246      0.19077      0.01984      
6400    0.32246    0.03890    0.10062    0.00241      0.17809      0.02435      0.00246      0.19077      0.01984      
6500    0.32245    0.03890    0.10062    0.00241      0.17809      0.02435      0.00246      0.19077      0.01983      
6600    0.32245    0.03890    0.10062    0.00241      0.17809      0.02435      0.00246      0.19077      0.01983      
6700    0.32245    0.03890    0.10062    0.00241      0.17809      0.02435      0.00246      0.19077      0.01984      
6800    0.32245    0.03890    0.10062    0.00241      0.17809      0.02434      0.00246      0.19077      0.01984      
6900    0.32245    0.03890    0.10062    0.00241      0.17809      0.02434      0.00246      0.19077      0.01984      
7000    0.32244    0.03890    0.10061    0.00241      0.17809      0.02434      0.00246      0.19077      0.01984      
7100    0.32244    0.03889    0.10061    0.00241      0.17809      0.02434      0.00246      0.19077      0.01984      
7200    0.32244    0.03889    0.10061    0.00241      0.17809      0.02434      0.00246      0.19077      0.01984      
7300    0.32244    0.03889    0.10061    0.00241      0.17809      0.02435      0.00246      0.19077      0.01984      
7400    0.32244    0.03889    0.10061    0.00241      0.17809      0.02434      0.00246      0.19077      0.01984      
7500    0.32243    0.03889    0.10061    0.00241      0.17809      0.02435      0.00246      0.19077      0.01984      
7600    0.32243    0.03889    0.10061    0.00241      0.17809      0.02434      0.00246      0.19077      0.01984      
7700    0.32243    0.03889    0.10061    0.00241      0.17809      0.02434      0.00246      0.19077      0.01984      
7800    0.32243    0.03889    0.10061    0.00241      0.17809      0.02434      0.00246      0.19077      0.01984      
7900    0.32243    0.03889    0.10061    0.00241      0.17809      0.02434      0.00246      0.19077      0.01984      
8000    0.32242    0.03889    0.10060    0.00241      0.17809      0.02434      0.00246      0.19078      0.01984      
8100    0.32242    0.03889    0.10060    0.00241      0.17809      0.02434      0.00246      0.19078      0.01984      
8200    0.32242    0.03889    0.10060    0.00241      0.17809      0.02434      0.00246      0.19078      0.01984      
8300    0.32242    0.03889    0.10060    0.00241      0.17809      0.02434      0.00245      0.19078      0.01984      
8400    0.32242    0.03889    0.10060    0.00241      0.17809      0.02434      0.00246      0.19078      0.01984      
8500    0.32241    0.03889    0.10060    0.00241      0.17809      0.02434      0.00245      0.19078      0.01984      
8600    0.32241    0.03888    0.10060    0.00241      0.17809      0.02434      0.00246      0.19077      0.01983      
8700    0.32241    0.03888    0.10060    0.00241      0.17809      0.02434      0.00245      0.19078      0.01983      
8800    0.32241    0.03888    0.10060    0.00241      0.17809      0.02434      0.00245      0.19078      0.01983      
8900    0.32241    0.03888    0.10060    0.00241      0.17809      0.02433      0.00245      0.19078      0.01984      
9000    0.32240    0.03888    0.10059    0.00241      0.17809      0.02433      0.00245      0.19077      0.01984      
9100    0.32240    0.03888    0.10059    0.00240      0.17809      0.02434      0.00245      0.19077      0.01983      
9200    0.32240    0.03888    0.10059    0.00241      0.17809      0.02433      0.00245      0.19077      0.01983      
9300    0.32240    0.03888    0.10059    0.00241      0.17809      0.02433      0.00245      0.19077      0.01983      
9400    0.32240    0.03888    0.10059    0.00241      0.17809      0.02433      0.00245      0.19077      0.01983      
9500    0.32239    0.03888    0.10059    0.00241      0.17808      0.02434      0.00245      0.19077      0.01984      
9600    0.32239    0.03888    0.10059    0.00241      0.17808      0.02434      0.00246      0.19077      0.01983      
9700    0.32239    0.03888    0.10059    0.00241      0.17809      0.02433      0.00245      0.19077      0.01983      
9800    0.32239    0.03888    0.10059    0.00241      0.17808      0.02433      0.00245      0.19077      0.01983      
9900    0.32239    0.03888    0.10058    0.00241      0.17808      0.02433      0.00245      0.19077      0.01983      
10000   0.32238    0.03888    0.10058    0.00241      0.17808      0.02433      0.00245      0.19077      0.01983      
10100   0.32238    0.03888    0.10058    0.00241      0.17808      0.02432      0.00245      0.19077      0.01983      
10200   0.32238    0.03888    0.10058    0.00241      0.17808      0.02433      0.00245      0.19077      0.01983      
10300   0.32238    0.03887    0.10058    0.00241      0.17808      0.02432      0.00245      0.19077      0.01983      
10400   0.32237    0.03887    0.10058    0.00241      0.17808      0.02433      0.00245      0.19077      0.01983      
10500   0.32237    0.03887    0.10058    0.00241      0.17808      0.02433      0.00245      0.19077      0.01983      
10600   0.32237    0.03887    0.10058    0.00241      0.17808      0.02432      0.00245      0.19077      0.01983      
10700   0.32237    0.03887    0.10058    0.00241      0.17808      0.02433      0.00245      0.19077      0.01982      
10800   0.32237    0.03887    0.10058    0.00241      0.17808      0.02432      0.00245      0.19077      0.01983      
10900   0.32236    0.03887    0.10057    0.00241      0.17808      0.02432      0.00245      0.19077      0.01983      
11000   0.32236    0.03887    0.10057    0.00241      0.17808      0.02432      0.00245      0.19077      0.01983      
11100   0.32236    0.03887    0.10057    0.00241      0.17808      0.02432      0.00245      0.19077      0.01983      
11200   0.32236    0.03887    0.10057    0.00241      0.17808      0.02432      0.00245      0.19077      0.01982      
11300   0.32236    0.03887    0.10057    0.00241      0.17808      0.02432      0.00245      0.19077      0.01982      
11400   0.32235    0.03887    0.10057    0.00241      0.17808      0.02432      0.00245      0.19077      0.01983      
11500   0.32235    0.03887    0.10057    0.00241      0.17808      0.02432      0.00245      0.19077      0.01983      
11600   0.32235    0.03887    0.10057    0.00241      0.17808      0.02432      0.00245      0.19077      0.01983      
11700   0.32235    0.03887    0.10057    0.00241      0.17808      0.02432      0.00245      0.19077      0.01983      
11800   0.32235    0.03887    0.10057    0.00241      0.17808      0.02432      0.00245      0.19077      0.01983      
11900   0.32234    0.03887    0.10056    0.00241      0.17808      0.02432      0.00245      0.19077      0.01983      
12000   0.32234    0.03887    0.10056    0.00241      0.17808      0.02432      0.00245      0.19076      0.01983      
12100   0.32234    0.03886    0.10056    0.00240      0.17808      0.02432      0.00245      0.19077      0.01983      
12200   0.32234    0.03886    0.10056    0.00241      0.17808      0.02432      0.00245      0.19077      0.01983      
12300   0.32234    0.03886    0.10056    0.00241      0.17808      0.02432      0.00245      0.19077      0.01983      
12400   0.32233    0.03886    0.10056    0.00241      0.17808      0.02431      0.00245      0.19077      0.01983      
12500   0.32233    0.03886    0.10056    0.00241      0.17807      0.02432      0.00245      0.19077      0.01983      
12600   0.32233    0.03886    0.10056    0.00241      0.17807      0.02432      0.00245      0.19076      0.01983      
12700   0.32233    0.03886    0.10056    0.00241      0.17807      0.02431      0.00245      0.19077      0.01983      
12800   0.32233    0.03886    0.10056    0.00241      0.17807      0.02432      0.00245      0.19077      0.01983      
12900   0.32232    0.03886    0.10055    0.00241      0.17807      0.02432      0.00245      0.19077      0.01983      
13000   0.32232    0.03886    0.10055    0.00241      0.17807      0.02432      0.00245      0.19077      0.01983      
13100   0.32232    0.03886    0.10055    0.00241      0.17807      0.02432      0.00245      0.19077      0.01984      
13200   0.32232    0.03886    0.10055    0.00240      0.17807      0.02432      0.00245      0.19077      0.01984      
13300   0.32232    0.03886    0.10055    0.00240      0.17807      0.02432      0.00245      0.19077      0.01984      
13400   0.32231    0.03886    0.10055    0.00241      0.17807      0.02432      0.00245      0.19077      0.01984      
13500   0.32231    0.03886    0.10055    0.00240      0.17807      0.02432      0.00245      0.19077      0.01984      
13600   0.32231    0.03886    0.10055    0.00241      0.17807      0.02432      0.00245      0.19076      0.01984      
13700   0.32231    0.03885    0.10055    0.00241      0.17807      0.02431      0.00245      0.19077      0.01984      
13800   0.32231    0.03885    0.10055    0.00241      0.17807      0.02432      0.00245      0.19077      0.01985      
13900   0.32230    0.03885    0.10054    0.00241      0.17807      0.02432      0.00245      0.19077      0.01984      
14000   0.32230    0.03885    0.10054    0.00241      0.17807      0.02432      0.00245      0.19076      0.01984      
14100   0.32230    0.03885    0.10054    0.00241      0.17807      0.02432      0.00245      0.19076      0.01984      
14200   0.32230    0.03885    0.10054    0.00240      0.17807      0.02432      0.00245      0.19077      0.01985      
14300   0.32230    0.03885    0.10054    0.00240      0.17807      0.02432      0.00245      0.19077      0.01984      
14400   0.32229    0.03885    0.10054    0.00241      0.17807      0.02432      0.00245      0.19077      0.01985      
14500   0.32229    0.03885    0.10054    0.00240      0.17807      0.02432      0.00245      0.19076      0.01984      
14600   0.32229    0.03885    0.10054    0.00240      0.17807      0.02432      0.00245      0.19076      0.01985      
14700   0.32229    0.03885    0.10054    0.00241      0.17807      0.02432      0.00245      0.19076      0.01985      
14800   0.32229    0.03885    0.10054    0.00240      0.17807      0.02432      0.00245      0.19076      0.01985      
14900   0.32229    0.03885    0.10053    0.00241      0.17807      0.02432      0.00245      0.19076      0.01985      
15000   0.32228    0.03885    0.10053    0.00241      0.17807      0.02432      0.00245      0.19076      0.01985      
15100   0.32228    0.03885    0.10053    0.00241      0.17806      0.02431      0.00245      0.19076      0.01984      
15200   0.32228    0.03885    0.10053    0.00241      0.17806      0.02432      0.00245      0.19076      0.01985      
15300   0.32228    0.03885    0.10053    0.00241      0.17806      0.02431      0.00245      0.19076      0.01985      
15400   0.32228    0.03884    0.10053    0.00241      0.17806      0.02432      0.00245      0.19076      0.01985      
15500   0.32227    0.03884    0.10053    0.00240      0.17806      0.02432      0.00245      0.19077      0.01985      
15600   0.32227    0.03884    0.10053    0.00241      0.17806      0.02432      0.00245      0.19077      0.01985      
15700   0.32227    0.03884    0.10053    0.00241      0.17806      0.02432      0.00245      0.19077      0.01985      
15800   0.32227    0.03884    0.10053    0.00241      0.17806      0.02432      0.00245      0.19076      0.01984      
15900   0.32227    0.03884    0.10053    0.00240      0.17806      0.02432      0.00245      0.19076      0.01985      
16000   0.32227    0.03884    0.10052    0.00240      0.17806      0.02432      0.00245      0.19076      0.01984      
16100   0.32226    0.03884    0.10052    0.00241      0.17806      0.02431      0.00245      0.19076      0.01983      
16200   0.32226    0.03884    0.10052    0.00241      0.17806      0.02431      0.00245      0.19076      0.01984      
16300   0.32226    0.03884    0.10052    0.00240      0.17806      0.02431      0.00245      0.19077      0.01984      
16400   0.32226    0.03884    0.10052    0.00240      0.17806      0.02431      0.00245      0.19076      0.01984      
16500   0.32226    0.03884    0.10052    0.00240      0.17806      0.02432      0.00245      0.19076      0.01984      
16600   0.32225    0.03884    0.10052    0.00240      0.17806      0.02432      0.00245      0.19077      0.01984      
16700   0.32225    0.03884    0.10052    0.00240      0.17806      0.02432      0.00245      0.19076      0.01985      
16800   0.32225    0.03884    0.10052    0.00240      0.17806      0.02432      0.00245      0.19076      0.01984      
16900   0.32225    0.03884    0.10052    0.00240      0.17806      0.02431      0.00245      0.19076      0.01985      
17000   0.32225    0.03884    0.10052    0.00240      0.17806      0.02432      0.00245      0.19076      0.01985      
17100   0.32224    0.03884    0.10051    0.00240      0.17806      0.02432      0.00245      0.19076      0.01985      
17200   0.32224    0.03884    0.10051    0.00240      0.17806      0.02432      0.00244      0.19076      0.01985      
17300   0.32224    0.03883    0.10051    0.00240      0.17806      0.02432      0.00245      0.19076      0.01985      
17400   0.32224    0.03883    0.10051    0.00240      0.17806      0.02432      0.00245      0.19076      0.01986      
17500   0.32224    0.03883    0.10051    0.00240      0.17806      0.02432      0.00245      0.19076      0.01986      
17600   0.32224    0.03883    0.10051    0.00240      0.17806      0.02432      0.00245      0.19076      0.01985      
17700   0.32223    0.03883    0.10051    0.00240      0.17806      0.02431      0.00245      0.19076      0.01985      
17800   0.32223    0.03883    0.10051    0.00240      0.17806      0.02432      0.00245      0.19076      0.01986      
17900   0.32223    0.03883    0.10051    0.00240      0.17806      0.02432      0.00245      0.19076      0.01986      
18000   0.32223    0.03883    0.10051    0.00240      0.17806      0.02431      0.00245      0.19076      0.01986      
18100   0.32223    0.03883    0.10051    0.00240      0.17805      0.02431      0.00245      0.19076      0.01985      
18200   0.32223    0.03883    0.10051    0.00240      0.17806      0.02432      0.00245      0.19076      0.01985      
18300   0.32222    0.03883    0.10050    0.00240      0.17805      0.02431      0.00245      0.19076      0.01984      
18400   0.32222    0.03883    0.10050    0.00240      0.17805      0.02431      0.00245      0.19076      0.01985      
18500   0.32222    0.03883    0.10050    0.00240      0.17805      0.02431      0.00245      0.19076      0.01985      
18600   0.32222    0.03883    0.10050    0.00240      0.17805      0.02431      0.00245      0.19076      0.01984      
18700   0.32222    0.03883    0.10050    0.00240      0.17805      0.02431      0.00245      0.19076      0.01985      
18800   0.32222    0.03883    0.10050    0.00240      0.17805      0.02431      0.00245      0.19076      0.01985      
18900   0.32221    0.03883    0.10050    0.00240      0.17805      0.02431      0.00245      0.19076      0.01985      
19000   0.32221    0.03883    0.10050    0.00240      0.17805      0.02431      0.00245      0.19076      0.01985      
19100   0.32221    0.03883    0.10050    0.00240      0.17805      0.02431      0.00244      0.19076      0.01985      
19200   0.32221    0.03882    0.10050    0.00240      0.17805      0.02431      0.00245      0.19076      0.01985      
19300   0.32221    0.03882    0.10050    0.00240      0.17805      0.02431      0.00245      0.19076      0.01984      
19400   0.32221    0.03882    0.10050    0.00240      0.17805      0.02431      0.00245      0.19076      0.01984      
19500   0.32220    0.03882    0.10050    0.00240      0.17805      0.02431      0.00245      0.19076      0.01984      
19600   0.32220    0.03882    0.10049    0.00240      0.17805      0.02431      0.00245      0.19076      0.01984      
19700   0.32220    0.03882    0.10049    0.00240      0.17805      0.02431      0.00245      0.19076      0.01984      
19800   0.32220    0.03882    0.10049    0.00240      0.17805      0.02431      0.00245      0.19076      0.01984      
19900   0.32220    0.03882    0.10049    0.00240      0.17805      0.02431      0.00245      0.19076      0.01983      
20000   0.32220    0.03882    0.10049    0.00240      0.17805      0.02431      0.00245      0.19076      0.01983      
20100   0.32220    0.03882    0.10049    0.00240      0.17805      0.02431      0.00245      0.19076      0.01982      
20200   0.32219    0.03882    0.10049    0.00240      0.17805      0.02431      0.00245      0.19076      0.01983      
20300   0.32219    0.03882    0.10049    0.00240      0.17805      0.02431      0.00245      0.19076      0.01983      
20400   0.32219    0.03882    0.10049    0.00240      0.17805      0.02430      0.00245      0.19076      0.01983      
20500   0.32219    0.03882    0.10049    0.00240      0.17805      0.02431      0.00245      0.19076      0.01983      
20600   0.32219    0.03882    0.10049    0.00240      0.17805      0.02430      0.00245      0.19076      0.01983      
20700   0.32219    0.03882    0.10049    0.00240      0.17805      0.02430      0.00245      0.19076      0.01983      
20800   0.32218    0.03882    0.10049    0.00240      0.17805      0.02430      0.00245      0.19077      0.01984      
20900   0.32218    0.03882    0.10048    0.00240      0.17805      0.02431      0.00245      0.19076      0.01983      
21000   0.32218    0.03882    0.10048    0.00240      0.17805      0.02431      0.00245      0.19077      0.01983      
21100   0.32218    0.03882    0.10048    0.00240      0.17805      0.02431      0.00245      0.19077      0.01983      
21200   0.32218    0.03881    0.10048    0.00240      0.17805      0.02431      0.00245      0.19077      0.01983      
21300   0.32218    0.03881    0.10048    0.00240      0.17805      0.02430      0.00245      0.19077      0.01982      
21400   0.32217    0.03881    0.10048    0.00240      0.17805      0.02431      0.00245      0.19077      0.01983      
21500   0.32217    0.03881    0.10048    0.00240      0.17805      0.02430      0.00245      0.19077      0.01982      
21600   0.32217    0.03881    0.10048    0.00240      0.17805      0.02430      0.00245      0.19077      0.01982      
21700   0.32217    0.03881    0.10048    0.00240      0.17805      0.02431      0.00245      0.19077      0.01982      
21800   0.32217    0.03881    0.10048    0.00240      0.17805      0.02431      0.00245      0.19077      0.01982      
21900   0.32217    0.03881    0.10048    0.00240      0.17805      0.02431      0.00245      0.19077      0.01982      
22000   0.32216    0.03881    0.10048    0.00240      0.17805      0.02431      0.00244      0.19077      0.01982      
22100   0.32216    0.03881    0.10047    0.00240      0.17804      0.02431      0.00245      0.19076      0.01982      
22200   0.32216    0.03881    0.10047    0.00240      0.17804      0.02431      0.00245      0.19076      0.01982      
22300   0.32216    0.03881    0.10047    0.00240      0.17805      0.02430      0.00245      0.19076      0.01981      
22400   0.32216    0.03881    0.10047    0.00240      0.17804      0.02430      0.00245      0.19076      0.01981      
22500   0.32216    0.03881    0.10047    0.00240      0.17804      0.02430      0.00245      0.19077      0.01982      
22600   0.32215    0.03881    0.10047    0.00240      0.17804      0.02431      0.00245      0.19076      0.01982      
22700   0.32215    0.03881    0.10047    0.00240      0.17804      0.02430      0.00245      0.19076      0.01981      
22800   0.32215    0.03881    0.10047    0.00240      0.17804      0.02430      0.00245      0.19076      0.01982      
22900   0.32215    0.03881    0.10047    0.00240      0.17804      0.02431      0.00245      0.19076      0.01981      
23000   0.32215    0.03881    0.10047    0.00240      0.17804      0.02430      0.00245      0.19076      0.01981      
23100   0.32215    0.03881    0.10047    0.00240      0.17804      0.02430      0.00245      0.19076      0.01982      
23200   0.32215    0.03880    0.10047    0.00240      0.17804      0.02430      0.00245      0.19076      0.01981      
23300   0.32214    0.03880    0.10047    0.00240      0.17804      0.02430      0.00245      0.19075      0.01981      
23400   0.32214    0.03880    0.10047    0.00240      0.17804      0.02430      0.00245      0.19075      0.01981      
23500   0.32214    0.03880    0.10046    0.00240      0.17804      0.02430      0.00245      0.19075      0.01981      
23600   0.32214    0.03880    0.10046    0.00240      0.17804      0.02430      0.00245      0.19076      0.01981      
23700   0.32214    0.03880    0.10046    0.00240      0.17804      0.02430      0.00245      0.19076      0.01981      
23800   0.32214    0.03880    0.10046    0.00240      0.17804      0.02430      0.00245      0.19076      0.01981      
23900   0.32214    0.03880    0.10046    0.00240      0.17804      0.02430      0.00245      0.19076      0.01981      
24000   0.32213    0.03880    0.10046    0.00240      0.17804      0.02430      0.00245      0.19075      0.01980      
24100   0.32213    0.03880    0.10046    0.00240      0.17804      0.02430      0.00245      0.19075      0.01981      
24200   0.32213    0.03880    0.10046    0.00240      0.17804      0.02430      0.00245      0.19075      0.01981      
24300   0.32213    0.03880    0.10046    0.00240      0.17804      0.02430      0.00245      0.19076      0.01981      
24400   0.32213    0.03880    0.10046    0.00240      0.17804      0.02430      0.00245      0.19076      0.01981      
24500   0.32213    0.03880    0.10046    0.00240      0.17804      0.02430      0.00245      0.19076      0.01981      
24600   0.32212    0.03880    0.10046    0.00240      0.17804      0.02429      0.00245      0.19075      0.01981      
24700   0.32212    0.03880    0.10046    0.00240      0.17804      0.02430      0.00245      0.19075      0.01981      
24800   0.32212    0.03880    0.10046    0.00240      0.17804      0.02429      0.00245      0.19075      0.01981      
24900   0.32212    0.03880    0.10045    0.00240      0.17804      0.02429      0.00245      0.19075      0.01981      
25000   0.32212    0.03880    0.10045    0.00240      0.17804      0.02429      0.00245      0.19075      0.01981      
25100   0.32212    0.03880    0.10045    0.00240      0.17804      0.02430      0.00245      0.19075      0.01981      
25200   0.32212    0.03879    0.10045    0.00240      0.17804      0.02430      0.00245      0.19075      0.01981      
25300   0.32211    0.03879    0.10045    0.00240      0.17804      0.02430      0.00245      0.19075      0.01981      
25400   0.32211    0.03879    0.10045    0.00240      0.17804      0.02429      0.00245      0.19075      0.01981      
25500   0.32211    0.03879    0.10045    0.00240      0.17803      0.02429      0.00245      0.19075      0.01981      
25600   0.32211    0.03879    0.10045    0.00240      0.17803      0.02429      0.00245      0.19075      0.01981      
25700   0.32211    0.03879    0.10045    0.00240      0.17803      0.02429      0.00245      0.19075      0.01980      
25800   0.32211    0.03879    0.10045    0.00240      0.17803      0.02429      0.00245      0.19075      0.01981      
25900   0.32211    0.03879    0.10045    0.00240      0.17803      0.02429      0.00245      0.19075      0.01981      
26000   0.32210    0.03879    0.10045    0.00240      0.17803      0.02429      0.00245      0.19075      0.01981      
26100   0.32210    0.03879    0.10045    0.00240      0.17803      0.02429      0.00245      0.19075      0.01981      
26200   0.32210    0.03879    0.10045    0.00240      0.17803      0.02429      0.00245      0.19075      0.01980      
26300   0.32210    0.03879    0.10045    0.00240      0.17803      0.02429      0.00245      0.19075      0.01980      
26400   0.32210    0.03879    0.10044    0.00240      0.17803      0.02429      0.00245      0.19075      0.01980      
26500   0.32210    0.03879    0.10044    0.00240      0.17803      0.02429      0.00245      0.19075      0.01980      
26600   0.32210    0.03879    0.10044    0.00240      0.17803      0.02429      0.00245      0.19075      0.01980      
26700   0.32209    0.03879    0.10044    0.00240      0.17803      0.02429      0.00245      0.19075      0.01980      
26800   0.32209    0.03879    0.10044    0.00240      0.17803      0.02430      0.00245      0.19075      0.01981      
26900   0.32209    0.03879    0.10044    0.00240      0.17803      0.02429      0.00245      0.19075      0.01980      
27000   0.32209    0.03879    0.10044    0.00240      0.17803      0.02429      0.00245      0.19075      0.01980      
27100   0.32209    0.03879    0.10044    0.00240      0.17803      0.02429      0.00245      0.19075      0.01980      
27200   0.32209    0.03879    0.10044    0.00240      0.17803      0.02429      0.00245      0.19075      0.01980      
27300   0.32209    0.03879    0.10044    0.00240      0.17803      0.02429      0.00245      0.19075      0.01980      
27400   0.32208    0.03879    0.10044    0.00240      0.17803      0.02429      0.00245      0.19075      0.01981      
27500   0.32208    0.03879    0.10044    0.00240      0.17803      0.02429      0.00245      0.19075      0.01980      
27600   0.32208    0.03879    0.10044    0.00240      0.17803      0.02429      0.00245      0.19074      0.01981      
27700   0.32208    0.03879    0.10044    0.00240      0.17803      0.02429      0.00245      0.19074      0.01980      
27800   0.32208    0.03878    0.10044    0.00240      0.17803      0.02429      0.00245      0.19074      0.01980      
27900   0.32208    0.03878    0.10044    0.00240      0.17803      0.02429      0.00245      0.19074      0.01980      
28000   0.32208    0.03878    0.10043    0.00240      0.17803      0.02429      0.00245      0.19074      0.01980      
28100   0.32207    0.03878    0.10043    0.00240      0.17803      0.02429      0.00245      0.19074      0.01980      
28200   0.32207    0.03878    0.10043    0.00240      0.17803      0.02429      0.00245      0.19074      0.01980      
28300   0.32207    0.03878    0.10043    0.00240      0.17803      0.02429      0.00245      0.19074      0.01980      
28400   0.32207    0.03878    0.10043    0.00240      0.17802      0.02429      0.00245      0.19074      0.01980      
28500   0.32207    0.03878    0.10043    0.00240      0.17802      0.02428      0.00245      0.19074      0.01980      
28600   0.32207    0.03878    0.10043    0.00240      0.17802      0.02429      0.00245      0.19074      0.01980      
28700   0.32207    0.03878    0.10043    0.00240      0.17802      0.02429      0.00245      0.19074      0.01980      
28800   0.32207    0.03878    0.10043    0.00240      0.17802      0.02428      0.00245      0.19074      0.01980      
28900   0.32206    0.03878    0.10043    0.00240      0.17802      0.02428      0.00245      0.19074      0.01980      
29000   0.32206    0.03878    0.10043    0.00240      0.17802      0.02428      0.00245      0.19074      0.01980      
29100   0.32206    0.03878    0.10043    0.00240      0.17802      0.02428      0.00245      0.19074      0.01980      
29200   0.32206    0.03878    0.10043    0.00240      0.17802      0.02428      0.00245      0.19074      0.01980      
29300   0.32206    0.03878    0.10043    0.00240      0.17802      0.02428      0.00245      0.19074      0.01980      
29400   0.32206    0.03878    0.10043    0.00240      0.17802      0.02428      0.00245      0.19074      0.01980      
29500   0.32206    0.03878    0.10043    0.00240      0.17802      0.02428      0.00245      0.19074      0.01979      
29600   0.32206    0.03878    0.10043    0.00240      0.17802      0.02428      0.00245      0.19074      0.01979      
29700   0.32205    0.03878    0.10043    0.00240      0.17802      0.02428      0.00245      0.19074      0.01980      
29800   0.32205    0.03878    0.10042    0.00240      0.17802      0.02428      0.00245      0.19074      0.01979      
29900   0.32205    0.03878    0.10042    0.00240      0.17802      0.02428      0.00245      0.19074      0.01979      
30000   0.32205    0.03878    0.10042    0.00240      0.17802      0.02428      0.00245      0.19074      0.01979      
30100   0.32205    0.03878    0.10042    0.00240      0.17802      0.02428      0.00245      0.19074      0.01979      
30200   0.32205    0.03878    0.10042    0.00240      0.17802      0.02428      0.00245      0.19074      0.01979      
30300   0.32205    0.03878    0.10042    0.00240      0.17802      0.02429      0.00245      0.19074      0.01979      
30400   0.32204    0.03878    0.10042    0.00240      0.17802      0.02428      0.00245      0.19074      0.01979      
30500   0.32204    0.03878    0.10042    0.00240      0.17802      0.02428      0.00245      0.19074      0.01979      
30600   0.32204    0.03877    0.10042    0.00240      0.17802      0.02428      0.00245      0.19074      0.01979      
30700   0.32204    0.03877    0.10042    0.00240      0.17802      0.02428      0.00245      0.19074      0.01979      
30800   0.32204    0.03877    0.10042    0.00240      0.17802      0.02428      0.00245      0.19074      0.01979      
30900   0.32204    0.03877    0.10042    0.00240      0.17802      0.02429      0.00245      0.19074      0.01979      
31000   0.32204    0.03877    0.10042    0.00240      0.17802      0.02428      0.00245      0.19074      0.01979      
31100   0.32204    0.03877    0.10042    0.00240      0.17802      0.02428      0.00245      0.19074      0.01979      
31200   0.32203    0.03877    0.10042    0.00240      0.17802      0.02428      0.00245      0.19074      0.01980      
31300   0.32203    0.03877    0.10042    0.00240      0.17802      0.02429      0.00245      0.19074      0.01980      
31400   0.32203    0.03877    0.10042    0.00240      0.17802      0.02429      0.00245      0.19074      0.01980      
31500   0.32203    0.03877    0.10042    0.00240      0.17802      0.02428      0.00245      0.19074      0.01980      
31600   0.32203    0.03877    0.10041    0.00240      0.17802      0.02428      0.00245      0.19074      0.01980      
31700   0.32203    0.03877    0.10041    0.00240      0.17801      0.02428      0.00245      0.19074      0.01979      
31800   0.32203    0.03877    0.10041    0.00240      0.17801      0.02428      0.00245      0.19074      0.01980      
31900   0.32203    0.03877    0.10041    0.00240      0.17801      0.02428      0.00245      0.19074      0.01979      
32000   0.32202    0.03877    0.10041    0.00240      0.17801      0.02428      0.00245      0.19074      0.01979      
32100   0.32202    0.03877    0.10041    0.00240      0.17801      0.02428      0.00245      0.19074      0.01979      
32200   0.32202    0.03877    0.10041    0.00240      0.17801      0.02428      0.00245      0.19074      0.01980      
32300   0.32202    0.03877    0.10041    0.00240      0.17801      0.02428      0.00245      0.19074      0.01980      
32400   0.32202    0.03877    0.10041    0.00240      0.17801      0.02428      0.00245      0.19074      0.01979      
32500   0.32202    0.03877    0.10041    0.00240      0.17801      0.02428      0.00245      0.19073      0.01979      
32600   0.32202    0.03877    0.10041    0.00240      0.17801      0.02428      0.00245      0.19074      0.01979      
32700   0.32202    0.03877    0.10041    0.00240      0.17801      0.02428      0.00245      0.19074      0.01979      
32800   0.32201    0.03877    0.10041    0.00240      0.17801      0.02428      0.00245      0.19073      0.01979      
32900   0.32201    0.03877    0.10041    0.00240      0.17801      0.02429      0.00245      0.19073      0.01980      
33000   0.32201    0.03877    0.10041    0.00240      0.17801      0.02429      0.00245      0.19073      0.01980      
33100   0.32201    0.03876    0.10041    0.00240      0.17801      0.02428      0.00245      0.19073      0.01980      
33200   0.32201    0.03876    0.10040    0.00240      0.17801      0.02428      0.00245      0.19073      0.01979      
33300   0.32201    0.03876    0.10040    0.00240      0.17801      0.02428      0.00245      0.19073      0.01980      
33400   0.32201    0.03876    0.10040    0.00240      0.17801      0.02429      0.00245      0.19073      0.01980      
33500   0.32201    0.03876    0.10040    0.00240      0.17801      0.02428      0.00245      0.19073      0.01980      
33600   0.32200    0.03876    0.10040    0.00240      0.17801      0.02428      0.00245      0.19073      0.01980      
33700   0.32200    0.03876    0.10040    0.00240      0.17801      0.02428      0.00245      0.19073      0.01980      
33800   0.32200    0.03876    0.10040    0.00240      0.17801      0.02428      0.00245      0.19073      0.01980      
33900   0.32200    0.03876    0.10040    0.00240      0.17801      0.02428      0.00245      0.19073      0.01980      
34000   0.32200    0.03876    0.10040    0.00240      0.17801      0.02428      0.00245      0.19073      0.01980      
34100   0.32200    0.03876    0.10040    0.00240      0.17801      0.02428      0.00245      0.19073      0.01980      
34200   0.32200    0.03876    0.10040    0.00240      0.17801      0.02428      0.00245      0.19073      0.01980      
34300   0.32200    0.03876    0.10040    0.00240      0.17801      0.02428      0.00245      0.19073      0.01980      
34400   0.32200    0.03876    0.10040    0.00240      0.17801      0.02428      0.00245      0.19073      0.01980      
34500   0.32199    0.03876    0.10040    0.00240      0.17801      0.02428      0.00245      0.19073      0.01980      
34600   0.32199    0.03876    0.10040    0.00240      0.17801      0.02428      0.00245      0.19073      0.01980      
34700   0.32199    0.03876    0.10040    0.00240      0.17801      0.02428      0.00245      0.19073      0.01980      
34800   0.32199    0.03876    0.10040    0.00240      0.17801      0.02428      0.00245      0.19073      0.01979      
34900   0.32199    0.03876    0.10040    0.00240      0.17801      0.02428      0.00245      0.19073      0.01979      
35000   0.32199    0.03876    0.10040    0.00240      0.17801      0.02428      0.00245      0.19073      0.01979      
35100   0.32199    0.03876    0.10039    0.00240      0.17801      0.02428      0.00245      0.19073      0.01979      
35200   0.32199    0.03876    0.10039    0.00240      0.17801      0.02428      0.00245      0.19073      0.01979      
35300   0.32198    0.03876    0.10039    0.00240      0.17800      0.02428      0.00245      0.19073      0.01979      
35400   0.32198    0.03876    0.10039    0.00240      0.17800      0.02428      0.00245      0.19073      0.01979      
35500   0.32198    0.03876    0.10039    0.00240      0.17801      0.02427      0.00245      0.19073      0.01979      
35600   0.32198    0.03876    0.10039    0.00240      0.17801      0.02428      0.00245      0.19073      0.01979      
35700   0.32198    0.03876    0.10039    0.00240      0.17800      0.02428      0.00245      0.19073      0.01979      
35800   0.32198    0.03876    0.10039    0.00240      0.17800      0.02427      0.00245      0.19073      0.01979      
35900   0.32198    0.03876    0.10039    0.00240      0.17800      0.02427      0.00245      0.19073      0.01979      
36000   0.32198    0.03875    0.10039    0.00240      0.17800      0.02427      0.00245      0.19073      0.01979      
36100   0.32197    0.03875    0.10039    0.00240      0.17800      0.02427      0.00245      0.19073      0.01979      
36200   0.32197    0.03875    0.10039    0.00240      0.17800      0.02427      0.00245      0.19073      0.01979      
36300   0.32197    0.03875    0.10039    0.00240      0.17800      0.02427      0.00245      0.19073      0.01978      
36400   0.32197    0.03875    0.10039    0.00240      0.17800      0.02427      0.00245      0.19073      0.01979      
36500   0.32197    0.03875    0.10039    0.00240      0.17800      0.02427      0.00245      0.19073      0.01979      
36600   0.32197    0.03875    0.10039    0.00240      0.17800      0.02427      0.00245      0.19073      0.01979      
36700   0.32197    0.03875    0.10039    0.00240      0.17800      0.02427      0.00245      0.19073      0.01979      
36800   0.32197    0.03875    0.10038    0.00240      0.17800      0.02428      0.00245      0.19073      0.01979      
36900   0.32196    0.03875    0.10038    0.00240      0.17800      0.02427      0.00245      0.19073      0.01979      
37000   0.32196    0.03875    0.10038    0.00240      0.17800      0.02427      0.00245      0.19073      0.01979      
37100   0.32196    0.03875    0.10038    0.00240      0.17800      0.02427      0.00245      0.19073      0.01979      
37200   0.32196    0.03875    0.10038    0.00240      0.17800      0.02427      0.00245      0.19073      0.01979      
37300   0.32196    0.03875    0.10038    0.00240      0.17800      0.02427      0.00245      0.19073      0.01979      
37400   0.32196    0.03875    0.10038    0.00240      0.17800      0.02427      0.00245      0.19073      0.01979      
37500   0.32196    0.03875    0.10038    0.00240      0.17800      0.02427      0.00245      0.19073      0.01979      
37600   0.32196    0.03875    0.10038    0.00240      0.17800      0.02427      0.00245      0.19073      0.01979      
37700   0.32196    0.03875    0.10038    0.00240      0.17800      0.02427      0.00245      0.19073      0.01979      
37800   0.32195    0.03875    0.10038    0.00240      0.17800      0.02427      0.00245      0.19073      0.01979      
37900   0.32195    0.03875    0.10038    0.00240      0.17800      0.02427      0.00245      0.19073      0.01979      
38000   0.32195    0.03875    0.10038    0.00240      0.17800      0.02427      0.00245      0.19073      0.01979      
38100   0.32195    0.03875    0.10038    0.00240      0.17800      0.02427      0.00245      0.19073      0.01978      
38200   0.32195    0.03875    0.10038    0.00240      0.17800      0.02427      0.00245      0.19073      0.01978      
38300   0.32195    0.03875    0.10038    0.00240      0.17800      0.02427      0.00245      0.19073      0.01979      
38400   0.32195    0.03875    0.10038    0.00240      0.17800      0.02426      0.00245      0.19073      0.01979      
38500   0.32195    0.03875    0.10037    0.00240      0.17800      0.02427      0.00245      0.19073      0.01979      
38600   0.32195    0.03875    0.10037    0.00240      0.17800      0.02427      0.00245      0.19073      0.01979      
38700   0.32194    0.03875    0.10037    0.00240      0.17800      0.02427      0.00245      0.19073      0.01979      
38800   0.32194    0.03874    0.10037    0.00240      0.17800      0.02427      0.00245      0.19073      0.01979      
38900   0.32194    0.03874    0.10037    0.00240      0.17800      0.02427      0.00245      0.19073      0.01979      
39000   0.32194    0.03874    0.10037    0.00240      0.17800      0.02427      0.00245      0.19073      0.01979      
39100   0.32194    0.03874    0.10037    0.00240      0.17800      0.02426      0.00245      0.19073      0.01978      
39200   0.32194    0.03874    0.10037    0.00240      0.17800      0.02426      0.00245      0.19073      0.01978      
39300   0.32194    0.03874    0.10037    0.00240      0.17800      0.02427      0.00245      0.19073      0.01978      
39400   0.32194    0.03874    0.10037    0.00240      0.17800      0.02426      0.00245      0.19073      0.01978      
39500   0.32194    0.03874    0.10037    0.00240      0.17800      0.02426      0.00245      0.19073      0.01978      
39600   0.32194    0.03874    0.10037    0.00240      0.17800      0.02426      0.00245      0.19073      0.01978      
39700   0.32193    0.03874    0.10037    0.00240      0.17800      0.02426      0.00245      0.19073      0.01978      
39800   0.32193    0.03874    0.10037    0.00240      0.17800      0.02426      0.00245      0.19073      0.01978      
39900   0.32193    0.03874    0.10037    0.00240      0.17800      0.02426      0.00245      0.19073      0.01978      
40000   0.32193    0.03874    0.10037    0.00240      0.17800      0.02426      0.00245      0.19073      0.01977      
40100   0.32193    0.03874    0.10037    0.00240      0.17799      0.02426      0.00245      0.19073      0.01978      
40200   0.32193    0.03874    0.10037    0.00240      0.17799      0.02426      0.00245      0.19073      0.01978      
40300   0.32193    0.03874    0.10037    0.00240      0.17799      0.02426      0.00245      0.19073      0.01978      
40400   0.32193    0.03874    0.10037    0.00240      0.17799      0.02426      0.00245      0.19073      0.01977      
40500   0.32193    0.03874    0.10036    0.00240      0.17799      0.02426      0.00245      0.19073      0.01977      
40600   0.32192    0.03874    0.10036    0.00240      0.17799      0.02426      0.00245      0.19073      0.01977      
40700   0.32192    0.03874    0.10036    0.00240      0.17799      0.02426      0.00245      0.19073      0.01977      
40800   0.32192    0.03874    0.10036    0.00240      0.17799      0.02426      0.00245      0.19073      0.01977      
40900   0.32192    0.03874    0.10036    0.00240      0.17799      0.02426      0.00245      0.19073      0.01977      
41000   0.32192    0.03874    0.10036    0.00240      0.17799      0.02426      0.00245      0.19073      0.01977      
41100   0.32192    0.03874    0.10036    0.00240      0.17799      0.02426      0.00245      0.19073      0.01977      
41200   0.32192    0.03874    0.10036    0.00240      0.17799      0.02426      0.00245      0.19073      0.01977      
41300   0.32192    0.03874    0.10036    0.00240      0.17799      0.02426      0.00245      0.19073      0.01978      
41400   0.32192    0.03874    0.10036    0.00240      0.17799      0.02426      0.00245      0.19073      0.01977      
41500   0.32192    0.03874    0.10036    0.00240      0.17799      0.02426      0.00245      0.19073      0.01978      
41600   0.32191    0.03874    0.10036    0.00240      0.17799      0.02426      0.00245      0.19073      0.01978      
41700   0.32191    0.03874    0.10036    0.00240      0.17799      0.02426      0.00245      0.19073      0.01977      
41800   0.32191    0.03874    0.10036    0.00240      0.17799      0.02426      0.00245      0.19073      0.01977      
41900   0.32191    0.03873    0.10036    0.00240      0.17799      0.02426      0.00245      0.19073      0.01978      
42000   0.32191    0.03873    0.10036    0.00240      0.17799      0.02426      0.00245      0.19073      0.01977      
42100   0.32191    0.03873    0.10036    0.00240      0.17799      0.02426      0.00245      0.19073      0.01977      
42200   0.32191    0.03873    0.10036    0.00240      0.17799      0.02426      0.00245      0.19073      0.01977      
42300   0.32191    0.03873    0.10036    0.00240      0.17799      0.02426      0.00245      0.19073      0.01976      
42400   0.32191    0.03873    0.10035    0.00240      0.17799      0.02426      0.00245      0.19073      0.01977      
42500   0.32190    0.03873    0.10035    0.00240      0.17799      0.02426      0.00245      0.19073      0.01977      
42600   0.32190    0.03873    0.10035    0.00240      0.17799      0.02426      0.00245      0.19073      0.01976      
42700   0.32190    0.03873    0.10035    0.00240      0.17799      0.02425      0.00245      0.19073      0.01976      
42800   0.32190    0.03873    0.10035    0.00240      0.17799      0.02425      0.00245      0.19073      0.01976      
42900   0.32190    0.03873    0.10035    0.00240      0.17799      0.02426      0.00245      0.19073      0.01976      
43000   0.32190    0.03873    0.10035    0.00240      0.17799      0.02425      0.00244      0.19073      0.01976      
43100   0.32190    0.03873    0.10035    0.00240      0.17799      0.02425      0.00245      0.19073      0.01976      
43200   0.32190    0.03873    0.10035    0.00240      0.17799      0.02426      0.00244      0.19073      0.01977      
43300   0.32190    0.03873    0.10035    0.00240      0.17799      0.02426      0.00244      0.19073      0.01976      
43400   0.32190    0.03873    0.10035    0.00240      0.17799      0.02425      0.00244      0.19073      0.01976      
43500   0.32189    0.03873    0.10035    0.00240      0.17799      0.02425      0.00245      0.19073      0.01975      
43600   0.32189    0.03873    0.10035    0.00240      0.17799      0.02425      0.00244      0.19073      0.01976      
43700   0.32189    0.03873    0.10035    0.00240      0.17799      0.02425      0.00244      0.19073      0.01976      
43800   0.32189    0.03873    0.10035    0.00240      0.17799      0.02425      0.00244      0.19073      0.01976      
43900   0.32189    0.03873    0.10035    0.00240      0.17799      0.02425      0.00244      0.19073      0.01976      
44000   0.32189    0.03873    0.10035    0.00240      0.17799      0.02425      0.00245      0.19073      0.01975      
44100   0.32189    0.03873    0.10035    0.00240      0.17799      0.02425      0.00245      0.19073      0.01975      
44200   0.32189    0.03873    0.10035    0.00240      0.17799      0.02425      0.00245      0.19073      0.01975      
44300   0.32189    0.03873    0.10034    0.00240      0.17799      0.02425      0.00244      0.19073      0.01975      
44400   0.32188    0.03873    0.10034    0.00240      0.17799      0.02425      0.00245      0.19073      0.01975      
44500   0.32188    0.03873    0.10034    0.00240      0.17799      0.02425      0.00245      0.19073      0.01975      
44600   0.32188    0.03873    0.10034    0.00240      0.17799      0.02425      0.00245      0.19073      0.01975      
44700   0.32188    0.03873    0.10034    0.00240      0.17799      0.02425      0.00245      0.19073      0.01975      
44800   0.32188    0.03872    0.10034    0.00240      0.17799      0.02425      0.00245      0.19073      0.01975      
44900   0.32188    0.03872    0.10034    0.00240      0.17799      0.02425      0.00245      0.19073      0.01975      
45000   0.32188    0.03872    0.10034    0.00240      0.17799      0.02425      0.00245      0.19073      0.01975      
45100   0.32188    0.03872    0.10034    0.00240      0.17799      0.02425      0.00245      0.19073      0.01975      
45200   0.32188    0.03872    0.10034    0.00240      0.17799      0.02425      0.00245      0.19073      0.01975      
45300   0.32188    0.03872    0.10034    0.00240      0.17799      0.02425      0.00245      0.19073      0.01975      
45400   0.32187    0.03872    0.10034    0.00240      0.17799      0.02425      0.00245      0.19073      0.01975      
45500   0.32187    0.03872    0.10034    0.00240      0.17799      0.02425      0.00245      0.19073      0.01975      
45600   0.32187    0.03872    0.10034    0.00240      0.17799      0.02425      0.00245      0.19073      0.01975      
45700   0.32187    0.03872    0.10034    0.00240      0.17799      0.02425      0.00245      0.19073      0.01975      
45800   0.32187    0.03872    0.10034    0.00240      0.17799      0.02425      0.00245      0.19073      0.01975      
45900   0.32187    0.03872    0.10034    0.00240      0.17799      0.02425      0.00245      0.19073      0.01975      
46000   0.32187    0.03872    0.10034    0.00240      0.17799      0.02425      0.00245      0.19073      0.01975      
46100   0.32187    0.03872    0.10033    0.00240      0.17799      0.02425      0.00245      0.19073      0.01975      
46200   0.32187    0.03872    0.10033    0.00240      0.17799      0.02425      0.00245      0.19073      0.01975      
46300   0.32186    0.03872    0.10033    0.00240      0.17799      0.02425      0.00245      0.19073      0.01975      
46400   0.32186    0.03872    0.10033    0.00240      0.17799      0.02425      0.00245      0.19073      0.01975      
46500   0.32186    0.03872    0.10033    0.00240      0.17799      0.02425      0.00245      0.19073      0.01975      
46600   0.32186    0.03872    0.10033    0.00240      0.17799      0.02425      0.00245      0.19073      0.01975      
46700   0.32186    0.03872    0.10033    0.00240      0.17799      0.02425      0.00245      0.19073      0.01975      
46800   0.32186    0.03872    0.10033    0.00240      0.17799      0.02425      0.00245      0.19073      0.01975      
46900   0.32185    0.03872    0.10033    0.00240      0.17799      0.02425      0.00245      0.19073      0.01975      
47000   0.32185    0.03871    0.10032    0.00240      0.17798      0.02425      0.00245      0.19073      0.01975      
47100   0.32184    0.03871    0.10031    0.00240      0.17798      0.02425      0.00245      0.19073      0.01974      
47200   0.32182    0.03871    0.10030    0.00242      0.17798      0.02423      0.00246      0.19073      0.01972      
47300   0.32180    0.03870    0.10028    0.00243      0.17797      0.02423      0.00247      0.19073      0.01971      
47400   0.32179    0.03869    0.10028    0.00242      0.17798      0.02424      0.00246      0.19075      0.01972      
47500   0.32179    0.03869    0.10027    0.00241      0.17799      0.02424      0.00246      0.19076      0.01974      
47600   0.32178    0.03869    0.10027    0.00241      0.17799      0.02425      0.00245      0.19076      0.01975      
47700   0.32178    0.03869    0.10027    0.00240      0.17799      0.02425      0.00245      0.19077      0.01976      
47800   0.32178    0.03868    0.10027    0.00240      0.17799      0.02425      0.00245      0.19077      0.01977      
47900   0.32177    0.03868    0.10027    0.00240      0.17799      0.02425      0.00245      0.19077      0.01978      
48000   0.32177    0.03868    0.10027    0.00240      0.17799      0.02426      0.00245      0.19077      0.01979      
48100   0.32177    0.03868    0.10027    0.00240      0.17799      0.02426      0.00245      0.19077      0.01979      
48200   0.32177    0.03868    0.10027    0.00240      0.17799      0.02426      0.00245      0.19077      0.01980      
48300   0.32177    0.03868    0.10027    0.00240      0.17799      0.02425      0.00245      0.19077      0.01980      
48400   0.32176    0.03868    0.10027    0.00240      0.17799      0.02426      0.00245      0.19077      0.01980      
48500   0.32176    0.03868    0.10027    0.00240      0.17799      0.02426      0.00245      0.19077      0.01980      
48600   0.32176    0.03868    0.10026    0.00240      0.17799      0.02426      0.00245      0.19077      0.01980      
48700   0.32176    0.03868    0.10026    0.00240      0.17799      0.02425      0.00245      0.19077      0.01980      
48800   0.32176    0.03868    0.10026    0.00240      0.17799      0.02425      0.00245      0.19077      0.01981      
48900   0.32176    0.03868    0.10026    0.00240      0.17799      0.02426      0.00245      0.19077      0.01981      
49000   0.32175    0.03867    0.10026    0.00240      0.17799      0.02425      0.00245      0.19077      0.01981      
49100   0.32175    0.03867    0.10026    0.00240      0.17799      0.02425      0.00245      0.19077      0.01980      
49200   0.32175    0.03867    0.10026    0.00240      0.17799      0.02426      0.00245      0.19077      0.01980      
49300   0.32175    0.03867    0.10026    0.00240      0.17799      0.02425      0.00245      0.19077      0.01980      
49400   0.32175    0.03867    0.10026    0.00240      0.17799      0.02425      0.00245      0.19077      0.01980      
49500   0.32175    0.03867    0.10026    0.00240      0.17799      0.02425      0.00245      0.19077      0.01980      
49600   0.32175    0.03867    0.10026    0.00240      0.17799      0.02425      0.00245      0.19077      0.01980      
49700   0.32175    0.03867    0.10026    0.00240      0.17799      0.02425      0.00245      0.19077      0.01979      
49800   0.32175    0.03867    0.10026    0.00240      0.17799      0.02425      0.00245      0.19077      0.01979      
49900   0.32174    0.03867    0.10026    0.00240      0.17799      0.02425      0.00245      0.19077      0.01979      
50000   0.32174    0.03867    0.10026    0.00240      0.17799      0.02425      0.00245      0.19077      0.01979      
50100   0.32174    0.03867    0.10026    0.00240      0.17799      0.02425      0.00245      0.19077      0.01979      
50200   0.32174    0.03867    0.10026    0.00240      0.17799      0.02425      0.00245      0.19077      0.01979      
50300   0.32174    0.03867    0.10026    0.00240      0.17799      0.02425      0.00245      0.19077      0.01979      
50400   0.32174    0.03867    0.10026    0.00240      0.17799      0.02425      0.00245      0.19077      0.01978      
50500   0.32174    0.03867    0.10026    0.00240      0.17799      0.02425      0.00245      0.19077      0.01979      
50600   0.32174    0.03867    0.10026    0.00240      0.17799      0.02425      0.00245      0.19077      0.01979      
50700   0.32174    0.03867    0.10026    0.00240      0.17799      0.02425      0.00245      0.19077      0.01979      
50800   0.32173    0.03867    0.10025    0.00240      0.17799      0.02425      0.00245      0.19077      0.01979      
50900   0.32173    0.03867    0.10025    0.00240      0.17799      0.02425      0.00245      0.19077      0.01979      
51000   0.32173    0.03867    0.10025    0.00240      0.17799      0.02425      0.00245      0.19077      0.01979      
51100   0.32173    0.03867    0.10025    0.00240      0.17798      0.02425      0.00245      0.19077      0.01979      
51200   0.32173    0.03867    0.10025    0.00240      0.17798      0.02425      0.00245      0.19077      0.01979      
51300   0.32173    0.03867    0.10025    0.00240      0.17798      0.02425      0.00245      0.19077      0.01979      
51400   0.32173    0.03867    0.10025    0.00240      0.17798      0.02425      0.00245      0.19077      0.01978      
51500   0.32173    0.03867    0.10025    0.00240      0.17798      0.02424      0.00245      0.19076      0.01978      
51600   0.32173    0.03866    0.10025    0.00240      0.17798      0.02424      0.00245      0.19076      0.01978      
51700   0.32173    0.03866    0.10025    0.00240      0.17798      0.02424      0.00245      0.19076      0.01978      
51800   0.32172    0.03866    0.10025    0.00240      0.17798      0.02424      0.00245      0.19077      0.01978      
51900   0.32172    0.03866    0.10025    0.00240      0.17798      0.02424      0.00245      0.19076      0.01978      
52000   0.32172    0.03866    0.10025    0.00240      0.17798      0.02424      0.00245      0.19076      0.01978      
52100   0.32172    0.03866    0.10025    0.00240      0.17798      0.02424      0.00245      0.19076      0.01978      
52200   0.32172    0.03866    0.10025    0.00240      0.17798      0.02424      0.00245      0.19076      0.01978      
52300   0.32172    0.03866    0.10025    0.00240      0.17798      0.02424      0.00245      0.19076      0.01978      
52400   0.32172    0.03866    0.10025    0.00240      0.17798      0.02423      0.00245      0.19076      0.01978      
52500   0.32172    0.03866    0.10025    0.00240      0.17798      0.02424      0.00245      0.19076      0.01978      
52600   0.32172    0.03866    0.10025    0.00240      0.17798      0.02424      0.00245      0.19076      0.01978      
52700   0.32172    0.03866    0.10025    0.00240      0.17798      0.02424      0.00245      0.19076      0.01978      
52800   0.32172    0.03866    0.10025    0.00240      0.17798      0.02424      0.00245      0.19076      0.01978      
52900   0.32171    0.03866    0.10025    0.00240      0.17798      0.02423      0.00245      0.19076      0.01978      
53000   0.32171    0.03866    0.10025    0.00240      0.17798      0.02423      0.00245      0.19076      0.01978      
53100   0.32171    0.03866    0.10025    0.00240      0.17798      0.02423      0.00245      0.19076      0.01978      
53200   0.32171    0.03866    0.10025    0.00240      0.17798      0.02423      0.00245      0.19076      0.01978      
53300   0.32171    0.03866    0.10025    0.00240      0.17798      0.02423      0.00245      0.19076      0.01978      
53400   0.32171    0.03866    0.10024    0.00240      0.17798      0.02423      0.00245      0.19076      0.01978      
53500   0.32171    0.03866    0.10024    0.00240      0.17798      0.02423      0.00245      0.19076      0.01978      
53600   0.32171    0.03866    0.10024    0.00240      0.17798      0.02423      0.00245      0.19076      0.01978      
53700   0.32171    0.03866    0.10024    0.00240      0.17798      0.02423      0.00245      0.19076      0.01979      
53800   0.32171    0.03866    0.10024    0.00240      0.17798      0.02423      0.00245      0.19076      0.01979      
53900   0.32171    0.03866    0.10024    0.00240      0.17798      0.02423      0.00245      0.19076      0.01979      
54000   0.32171    0.03866    0.10024    0.00240      0.17798      0.02423      0.00245      0.19076      0.01979      
54100   0.32170    0.03866    0.10024    0.00240      0.17798      0.02423      0.00245      0.19076      0.01978      
54200   0.32170    0.03866    0.10024    0.00240      0.17798      0.02423      0.00245      0.19076      0.01978      
54300   0.32170    0.03866    0.10024    0.00240      0.17798      0.02423      0.00245      0.19076      0.01978      
54400   0.32170    0.03866    0.10024    0.00240      0.17798      0.02423      0.00245      0.19076      0.01978      
54500   0.32170    0.03866    0.10024    0.00240      0.17798      0.02423      0.00245      0.19076      0.01978      
54600   0.32170    0.03866    0.10024    0.00240      0.17798      0.02423      0.00245      0.19076      0.01978      
54700   0.32170    0.03866    0.10024    0.00240      0.17798      0.02423      0.00245      0.19076      0.01978      
54800   0.32170    0.03866    0.10024    0.00240      0.17798      0.02423      0.00245      0.19076      0.01978      
54900   0.32170    0.03866    0.10024    0.00240      0.17798      0.02422      0.00245      0.19076      0.01978      
55000   0.32170    0.03866    0.10024    0.00240      0.17798      0.02422      0.00245      0.19076      0.01978      
55100   0.32170    0.03866    0.10024    0.00240      0.17798      0.02423      0.00245      0.19076      0.01979      
55200   0.32170    0.03865    0.10024    0.00240      0.17798      0.02423      0.00245      0.19076      0.01978      
55300   0.32170    0.03865    0.10024    0.00240      0.17798      0.02422      0.00245      0.19076      0.01978      
55400   0.32169    0.03865    0.10024    0.00240      0.17798      0.02422      0.00245      0.19076      0.01978      
55500   0.32169    0.03865    0.10024    0.00240      0.17798      0.02423      0.00245      0.19076      0.01978      
55600   0.32169    0.03865    0.10024    0.00240      0.17798      0.02422      0.00245      0.19076      0.01978      
55700   0.32169    0.03865    0.10024    0.00240      0.17798      0.02422      0.00245      0.19076      0.01978      
55800   0.32169    0.03865    0.10024    0.00240      0.17798      0.02422      0.00245      0.19076      0.01978      
55900   0.32169    0.03865    0.10024    0.00240      0.17798      0.02422      0.00245      0.19076      0.01977      
56000   0.32169    0.03865    0.10024    0.00240      0.17798      0.02422      0.00245      0.19076      0.01977      
56100   0.32169    0.03865    0.10024    0.00240      0.17798      0.02422      0.00245      0.19076      0.01977      
56200   0.32169    0.03865    0.10023    0.00240      0.17798      0.02422      0.00245      0.19076      0.01977      
56300   0.32169    0.03865    0.10023    0.00240      0.17798      0.02422      0.00245      0.19076      0.01978      
56400   0.32169    0.03865    0.10023    0.00240      0.17798      0.02422      0.00245      0.19076      0.01977      
56500   0.32169    0.03865    0.10023    0.00240      0.17798      0.02422      0.00245      0.19076      0.01977      
56600   0.32168    0.03865    0.10023    0.00240      0.17798      0.02422      0.00245      0.19076      0.01977      
56700   0.32168    0.03865    0.10023    0.00240      0.17798      0.02422      0.00245      0.19076      0.01977      
56800   0.32168    0.03865    0.10023    0.00240      0.17798      0.02422      0.00245      0.19076      0.01977      
56900   0.32168    0.03865    0.10023    0.00240      0.17798      0.02422      0.00245      0.19076      0.01977      
57000   0.32168    0.03865    0.10023    0.00240      0.17798      0.02422      0.00245      0.19076      0.01977      
57100   0.32168    0.03865    0.10023    0.00240      0.17798      0.02422      0.00245      0.19076      0.01977      
57200   0.32168    0.03865    0.10023    0.00240      0.17798      0.02422      0.00245      0.19076      0.01977      
57300   0.32168    0.03865    0.10023    0.00240      0.17798      0.02422      0.00245      0.19076      0.01977      
57400   0.32168    0.03865    0.10023    0.00240      0.17798      0.02422      0.00245      0.19076      0.01977      
57500   0.32168    0.03865    0.10023    0.00240      0.17798      0.02422      0.00245      0.19076      0.01977      
57600   0.32168    0.03865    0.10023    0.00240      0.17798      0.02422      0.00245      0.19076      0.01976      
57700   0.32168    0.03865    0.10023    0.00240      0.17798      0.02422      0.00245      0.19076      0.01976      
57800   0.32168    0.03865    0.10023    0.00240      0.17798      0.02422      0.00245      0.19076      0.01976      
57900   0.32167    0.03865    0.10023    0.00240      0.17798      0.02422      0.00245      0.19076      0.01976      
58000   0.32167    0.03865    0.10023    0.00240      0.17798      0.02422      0.00245      0.19076      0.01976      
58100   0.32167    0.03865    0.10023    0.00240      0.17798      0.02422      0.00245      0.19076      0.01976      
58200   0.32167    0.03865    0.10023    0.00240      0.17798      0.02421      0.00245      0.19076      0.01977      
58300   0.32167    0.03865    0.10023    0.00240      0.17798      0.02422      0.00245      0.19076      0.01976      
58400   0.32167    0.03865    0.10023    0.00240      0.17798      0.02422      0.00245      0.19076      0.01977      
58500   0.32167    0.03865    0.10023    0.00240      0.17798      0.02421      0.00245      0.19076      0.01977      
58600   0.32167    0.03865    0.10023    0.00240      0.17798      0.02421      0.00245      0.19076      0.01976      
58700   0.32167    0.03864    0.10023    0.00240      0.17798      0.02421      0.00245      0.19076      0.01976      
58800   0.32167    0.03864    0.10023    0.00240      0.17798      0.02421      0.00245      0.19076      0.01976      
58900   0.32167    0.03864    0.10023    0.00240      0.17798      0.02421      0.00245      0.19076      0.01976      
[...]
183800  0.32117    0.03848    0.09992    0.00239      0.17795      0.02424      0.00245      0.19079      0.01989      
183900  0.32117    0.03848    0.09992    0.00239      0.17795      0.02424      0.00245      0.19079      0.01990      
184000  0.32117    0.03848    0.09992    0.00239      0.17795      0.02424      0.00245      0.19079      0.01990      
184100  0.32117    0.03848    0.09992    0.00239      0.17795      0.02424      0.00245      0.19079      0.01990      
184200  0.32117    0.03848    0.09992    0.00239      0.17795      0.02424      0.00245      0.19079      0.01990      
184300  0.32117    0.03848    0.09992    0.00239      0.17795      0.02424      0.00245      0.19079      0.01990      
184400  0.32117    0.03848    0.09992    0.00239      0.17795      0.02424      0.00245      0.19079      0.01990      
184500  0.32117    0.03848    0.09992    0.00239      0.17795      0.02424      0.00245      0.19079      0.01990      
184600  0.32117    0.03848    0.09992    0.00239      0.17795      0.02424      0.00245      0.19079      0.01990      
184700  0.32117    0.03848    0.09992    0.00239      0.17795      0.02424      0.00245      0.19079      0.01990      
184800  0.32117    0.03848    0.09992    0.00239      0.17795      0.02424      0.00245      0.19079      0.01990      
184900  0.32117    0.03848    0.09992    0.00239      0.17795      0.02424      0.00245      0.19079      0.01990      
185000  0.32117    0.03848    0.09992    0.00239      0.17795      0.02424      0.00245      0.19079      0.01990      
185100  0.32117    0.03848    0.09992    0.00239      0.17795      0.02424      0.00245      0.19079      0.01990      
185200  0.32117    0.03848    0.09992    0.00239      0.17795      0.02424      0.00245      0.19079      0.01990      
185300  0.32117    0.03848    0.09992    0.00239      0.17795      0.02424      0.00245      0.19079      0.01990      
185400  0.32117    0.03848    0.09992    0.00239      0.17795      0.02424      0.00245      0.19079      0.01990      
185500  0.32117    0.03848    0.09992    0.00239      0.17795      0.02424      0.00245      0.19079      0.01990      
185600  0.32117    0.03848    0.09992    0.00239      0.17795      0.02424      0.00245      0.19079      0.01990      
185700  0.32117    0.03848    0.09992    0.00239      0.17795      0.02424      0.00245      0.19079      0.01990      
185800  0.32117    0.03848    0.09992    0.00239      0.17795      0.02424      0.00245      0.19079      0.01990      
185900  0.32117    0.03848    0.09992    0.00239      0.17795      0.02424      0.00245      0.19079      0.01990      
186000  0.32117    0.03848    0.09992    0.00239      0.17795      0.02424      0.00245      0.19079      0.01990      
186100  0.32117    0.03848    0.09992    0.00239      0.17795      0.02424      0.00245      0.19079      0.01990      
186200  0.32117    0.03848    0.09992    0.00239      0.17795      0.02424      0.00245      0.19079      0.01990      
186300  0.32117    0.03848    0.09992    0.00239      0.17795      0.02424      0.00245      0.19079      0.01990      
186400  0.32117    0.03848    0.09992    0.00239      0.17795      0.02424      0.00245      0.19079      0.01990      
186500  0.32117    0.03848    0.09992    0.00239      0.17795      0.02424      0.00245      0.19079      0.01990      
186600  0.32117    0.03848    0.09992    0.00239      0.17795      0.02424      0.00245      0.19079      0.01990      
186700  0.32117    0.03848    0.09992    0.00239      0.17795      0.02424      0.00245      0.19079      0.01990      
186800  0.32117    0.03848    0.09992    0.00239      0.17795      0.02424      0.00245      0.19079      0.01990      
186900  0.32117    0.03848    0.09992    0.00239      0.17795      0.02424      0.00245      0.19079      0.01990      
187000  0.32117    0.03848    0.09992    0.00239      0.17795      0.02424      0.00245      0.19079      0.01990      
187100  0.32117    0.03848    0.09992    0.00239      0.17795      0.02424      0.00245      0.19079      0.01990      
187200  0.32117    0.03848    0.09992    0.00239      0.17795      0.02424      0.00245      0.19079      0.01990      
187300  0.32117    0.03848    0.09992    0.00239      0.17795      0.02424      0.00245      0.19079      0.01990      
187400  0.32117    0.03848    0.09992    0.00239      0.17795      0.02424      0.00245      0.19079      0.01990      
187500  0.32117    0.03848    0.09992    0.00239      0.17795      0.02424      0.00245      0.19079      0.01990      
187600  0.32117    0.03848    0.09992    0.00239      0.17795      0.02424      0.00245      0.19079      0.01990      
187700  0.32117    0.03848    0.09992    0.00239      0.17795      0.02424      0.00245      0.19079      0.01990      
187800  0.32117    0.03848    0.09992    0.00239      0.17795      0.02424      0.00245      0.19079      0.01990      
187900  0.32117    0.03848    0.09992    0.00239      0.17795      0.02424      0.00245      0.19079      0.01990      
188000  0.32117    0.03848    0.09992    0.00239      0.17795      0.02424      0.00245      0.19079      0.01990      
188100  0.32117    0.03848    0.09992    0.00239      0.17795      0.02424      0.00245      0.19079      0.01990      
188200  0.32117    0.03848    0.09992    0.00239      0.17795      0.02424      0.00245      0.19079      0.01990      
188300  0.32117    0.03848    0.09992    0.00239      0.17795      0.02424      0.00245      0.19079      0.01990      
188400  0.32117    0.03848    0.09992    0.00239      0.17795      0.02424      0.00245      0.19079      0.01990      
188500  0.32117    0.03848    0.09992    0.00239      0.17795      0.02424      0.00245      0.19079      0.01990      
188600  0.32117    0.03848    0.09992    0.00239      0.17795      0.02424      0.00245      0.19079      0.01990      
188700  0.32117    0.03848    0.09992    0.00239      0.17795      0.02424      0.00245      0.19079      0.01990      
188800  0.32117    0.03848    0.09992    0.00239      0.17795      0.02424      0.00245      0.19079      0.01990      
188900  0.32117    0.03848    0.09992    0.00239      0.17795      0.02424      0.00245      0.19079      0.01990      
189000  0.32117    0.03848    0.09992    0.00239      0.17795      0.02424      0.00245      0.19079      0.01990      
189100  0.32117    0.03848    0.09992    0.00239      0.17795      0.02424      0.00245      0.19079      0.01990      
189200  0.32117    0.03848    0.09992    0.00239      0.17795      0.02424      0.00245      0.19079      0.01991      
189300  0.32117    0.03848    0.09992    0.00239      0.17795      0.02424      0.00245      0.19079      0.01990      
189400  0.32117    0.03848    0.09992    0.00239      0.17795      0.02424      0.00245      0.19079      0.01990      
189500  0.32117    0.03848    0.09992    0.00239      0.17795      0.02424      0.00245      0.19079      0.01990      
189600  0.32117    0.03848    0.09992    0.00239      0.17795      0.02424      0.00245      0.19079      0.01990      
189700  0.32117    0.03848    0.09992    0.00239      0.17795      0.02424      0.00245      0.19079      0.01991      
189800  0.32117    0.03848    0.09992    0.00239      0.17795      0.02424      0.00245      0.19079      0.01991      
189900  0.32117    0.03848    0.09992    0.00239      0.17795      0.02424      0.00245      0.19079      0.01990      
190000  0.32117    0.03848    0.09992    0.00239      0.17795      0.02424      0.00245      0.19079      0.01991      
190100  0.32117    0.03848    0.09992    0.00239      0.17795      0.02424      0.00245      0.19079      0.01990      
190200  0.32117    0.03848    0.09992    0.00239      0.17795      0.02424      0.00245      0.19079      0.01991      
190300  0.32117    0.03848    0.09992    0.00239      0.17795      0.02424      0.00245      0.19079      0.01990      
190400  0.32117    0.03848    0.09992    0.00239      0.17795      0.02424      0.00245      0.19079      0.01990      
190500  0.32117    0.03848    0.09992    0.00239      0.17795      0.02424      0.00245      0.19079      0.01990      
190600  0.32117    0.03848    0.09992    0.00239      0.17795      0.02424      0.00245      0.19079      0.01990      
190700  0.32117    0.03848    0.09992    0.00239      0.17795      0.02424      0.00245      0.19079      0.01990      
190800  0.32117    0.03848    0.09992    0.00239      0.17795      0.02424      0.00245      0.19079      0.01990      
190900  0.32117    0.03848    0.09992    0.00239      0.17795      0.02424      0.00245      0.19079      0.01990      
191000  0.32117    0.03848    0.09992    0.00239      0.17795      0.02424      0.00245      0.19079      0.01990      
191100  0.32117    0.03848    0.09992    0.00239      0.17795      0.02424      0.00245      0.19079      0.01990      
191200  0.32117    0.03848    0.09992    0.00239      0.17795      0.02424      0.00245      0.19079      0.01990      
191300  0.32117    0.03848    0.09992    0.00239      0.17795      0.02424      0.00245      0.19079      0.01990      
191400  0.32117    0.03848    0.09992    0.00239      0.17795      0.02424      0.00245      0.19079      0.01990      
191500  0.32117    0.03848    0.09992    0.00239      0.17795      0.02424      0.00245      0.19079      0.01990      
191600  0.32117    0.03848    0.09992    0.00239      0.17795      0.02424      0.00245      0.19079      0.01990      
191700  0.32117    0.03848    0.09992    0.00239      0.17795      0.02424      0.00245      0.19079      0.01990      
191800  0.32117    0.03848    0.09992    0.00239      0.17795      0.02424      0.00245      0.19079      0.01990      
191900  0.32117    0.03848    0.09992    0.00239      0.17795      0.02424      0.00245      0.19079      0.01990      
192000  0.32117    0.03848    0.09992    0.00239      0.17795      0.02424      0.00245      0.19079      0.01990      
192100  0.32117    0.03848    0.09992    0.00239      0.17795      0.02424      0.00245      0.19079      0.01990      
192200  0.32117    0.03848    0.09992    0.00239      0.17795      0.02424      0.00245      0.19079      0.01990      
192300  0.32117    0.03848    0.09992    0.00239      0.17795      0.02424      0.00245      0.19079      0.01990      
192400  0.32117    0.03848    0.09992    0.00239      0.17795      0.02424      0.00245      0.19079      0.01990      
192500  0.32117    0.03848    0.09992    0.00239      0.17795      0.02424      0.00245      0.19079      0.01990      
192600  0.32117    0.03848    0.09992    0.00239      0.17795      0.02424      0.00245      0.19079      0.01990      
192700  0.32117    0.03848    0.09992    0.00239      0.17795      0.02424      0.00245      0.19079      0.01991      
192800  0.32117    0.03848    0.09992    0.00239      0.17795      0.02424      0.00245      0.19079      0.01991      
192900  0.32117    0.03848    0.09992    0.00239      0.17795      0.02424      0.00245      0.19079      0.01991      
193000  0.32117    0.03848    0.09992    0.00239      0.17795      0.02424      0.00245      0.19079      0.01991      
193100  0.32117    0.03848    0.09992    0.00239      0.17795      0.02424      0.00245      0.19079      0.01991      
193200  0.32117    0.03848    0.09992    0.00239      0.17795      0.02424      0.00245      0.19079      0.01991      
193300  0.32117    0.03848    0.09992    0.00239      0.17795      0.02424      0.00245      0.19079      0.01991      
193400  0.32117    0.03848    0.09992    0.00239      0.17795      0.02424      0.00245      0.19079      0.01991      
193500  0.32117    0.03848    0.09991    0.00239      0.17795      0.02424      0.00245      0.19079      0.01991      
193600  0.32117    0.03848    0.09991    0.00239      0.17795      0.02424      0.00245      0.19079      0.01991      
193700  0.32117    0.03848    0.09991    0.00239      0.17795      0.02424      0.00245      0.19079      0.01991      
193800  0.32117    0.03848    0.09991    0.00239      0.17795      0.02424      0.00245      0.19079      0.01991      
193900  0.32117    0.03848    0.09991    0.00239      0.17795      0.02424      0.00245      0.19079      0.01991      
194000  0.32117    0.03848    0.09991    0.00239      0.17795      0.02424      0.00245      0.19079      0.01991      
194100  0.32117    0.03848    0.09991    0.00239      0.17795      0.02424      0.00245      0.19079      0.01991      
194200  0.32117    0.03848    0.09991    0.00239      0.17795      0.02424      0.00245      0.19079      0.01991      
194300  0.32117    0.03848    0.09991    0.00239      0.17795      0.02424      0.00245      0.19079      0.01991      
194400  0.32117    0.03848    0.09991    0.00239      0.17795      0.02424      0.00245      0.19079      0.01991      
194500  0.32117    0.03848    0.09991    0.00239      0.17795      0.02424      0.00245      0.19079      0.01991      
194600  0.32117    0.03848    0.09991    0.00239      0.17795      0.02424      0.00245      0.19079      0.01991      
194700  0.32116    0.03848    0.09991    0.00239      0.17795      0.02424      0.00245      0.19079      0.01991      
194800  0.32116    0.03848    0.09991    0.00239      0.17795      0.02424      0.00245      0.19079      0.01991      
194900  0.32116    0.03848    0.09991    0.00239      0.17795      0.02424      0.00245      0.19079      0.01990      
195000  0.32116    0.03848    0.09991    0.00239      0.17795      0.02424      0.00245      0.19079      0.01990      
195100  0.32116    0.03848    0.09991    0.00239      0.17795      0.02424      0.00245      0.19079      0.01991      
195200  0.32116    0.03848    0.09991    0.00239      0.17795      0.02424      0.00245      0.19079      0.01991      
195300  0.32116    0.03848    0.09991    0.00239      0.17795      0.02424      0.00245      0.19079      0.01991      
195400  0.32116    0.03848    0.09991    0.00239      0.17795      0.02424      0.00245      0.19079      0.01991      
195500  0.32116    0.03848    0.09991    0.00239      0.17795      0.02424      0.00245      0.19079      0.01990      
195600  0.32116    0.03848    0.09991    0.00239      0.17795      0.02424      0.00245      0.19079      0.01990      
195700  0.32116    0.03848    0.09991    0.00239      0.17795      0.02424      0.00245      0.19079      0.01990      
195800  0.32116    0.03848    0.09991    0.00239      0.17795      0.02424      0.00245      0.19079      0.01990      
195900  0.32116    0.03848    0.09991    0.00239      0.17795      0.02424      0.00245      0.19079      0.01991      
196000  0.32116    0.03848    0.09991    0.00239      0.17795      0.02424      0.00245      0.19079      0.01991      
196100  0.32116    0.03848    0.09991    0.00239      0.17795      0.02424      0.00245      0.19079      0.01991      
196200  0.32116    0.03848    0.09991    0.00239      0.17795      0.02424      0.00245      0.19079      0.01990      
196300  0.32116    0.03848    0.09991    0.00239      0.17795      0.02424      0.00245      0.19079      0.01991      
196400  0.32116    0.03848    0.09991    0.00239      0.17795      0.02424      0.00245      0.19079      0.01991      
196500  0.32116    0.03848    0.09991    0.00239      0.17795      0.02424      0.00245      0.19079      0.01991      
196600  0.32116    0.03848    0.09991    0.00239      0.17795      0.02424      0.00245      0.19079      0.01991      
196700  0.32116    0.03848    0.09991    0.00239      0.17795      0.02424      0.00245      0.19079      0.01991      
196800  0.32116    0.03848    0.09991    0.00239      0.17795      0.02424      0.00245      0.19079      0.01991      
196900  0.32116    0.03848    0.09991    0.00239      0.17795      0.02424      0.00245      0.19079      0.01991      
197000  0.32116    0.03848    0.09991    0.00239      0.17795      0.02424      0.00245      0.19079      0.01991      
197100  0.32116    0.03848    0.09991    0.00239      0.17795      0.02424      0.00245      0.19079      0.01991      
197200  0.32116    0.03848    0.09991    0.00239      0.17795      0.02424      0.00245      0.19079      0.01991      
197300  0.32116    0.03848    0.09991    0.00239      0.17795      0.02424      0.00245      0.19079      0.01991      
197400  0.32116    0.03848    0.09991    0.00239      0.17795      0.02424      0.00245      0.19079      0.01991      
197500  0.32116    0.03848    0.09991    0.00239      0.17795      0.02424      0.00245      0.19079      0.01991      
197600  0.32116    0.03848    0.09991    0.00239      0.17795      0.02424      0.00245      0.19079      0.01991      
197700  0.32116    0.03848    0.09991    0.00239      0.17795      0.02424      0.00245      0.19079      0.01991      
197800  0.32116    0.03848    0.09991    0.00239      0.17795      0.02424      0.00245      0.19079      0.01991      
197900  0.32116    0.03848    0.09991    0.00239      0.17795      0.02424      0.00245      0.19079      0.01991      
198000  0.32116    0.03848    0.09991    0.00239      0.17795      0.02424      0.00245      0.19079      0.01991      
198100  0.32116    0.03848    0.09991    0.00239      0.17795      0.02424      0.00245      0.19079      0.01991      
198200  0.32116    0.03848    0.09991    0.00239      0.17795      0.02424      0.00245      0.19079      0.01991      
198300  0.32116    0.03848    0.09991    0.00239      0.17795      0.02424      0.00245      0.19079      0.01991      
198400  0.32116    0.03848    0.09991    0.00239      0.17795      0.02424      0.00245      0.19079      0.01991      
198500  0.32116    0.03848    0.09991    0.00239      0.17795      0.02424      0.00245      0.19079      0.01991      
198600  0.32116    0.03848    0.09991    0.00239      0.17795      0.02424      0.00245      0.19079      0.01991      
198700  0.32116    0.03848    0.09991    0.00239      0.17795      0.02424      0.00245      0.19079      0.01991      
198800  0.32116    0.03848    0.09991    0.00239      0.17795      0.02424      0.00245      0.19079      0.01991      
198900  0.32116    0.03848    0.09991    0.00239      0.17795      0.02424      0.00245      0.19079      0.01991      
199000  0.32116    0.03848    0.09991    0.00239      0.17795      0.02424      0.00245      0.19079      0.01991      
199100  0.32116    0.03848    0.09991    0.00239      0.17795      0.02424      0.00245      0.19079      0.01991      
199200  0.32116    0.03848    0.09991    0.00239      0.17795      0.02424      0.00245      0.19079      0.01991      
199300  0.32116    0.03848    0.09991    0.00239      0.17795      0.02424      0.00245      0.19079      0.01991      
199400  0.32116    0.03848    0.09991    0.00239      0.17795      0.02424      0.00245      0.19079      0.01991      
199500  0.32116    0.03848    0.09991    0.00239      0.17795      0.02424      0.00245      0.19079      0.01991      
199600  0.32116    0.03848    0.09991    0.00239      0.17795      0.02424      0.00245      0.19079      0.01991      
199700  0.32116    0.03848    0.09991    0.00239      0.17795      0.02424      0.00245      0.19079      0.01991      
199800  0.32116    0.03848    0.09991    0.00239      0.17795      0.02424      0.00245      0.19079      0.01991      
199900  0.32116    0.03848    0.09991    0.00239      0.17795      0.02424      0.00245      0.19079      0.01991      
200000  0.32116    0.03848    0.09991    0.00240      0.17795      0.02424      0.00245      0.19079      0.01991      

---------------------------------------------------------------
Time used for training = 84370.664062 s.
---------------------------------------------------------------


---------------------------------------------------------------
Finished running nep.
---------------------------------------------------------------

