   
******************Start running GPUMD tasks********************
   

***************************************************************
*                 Welcome to use GPUMD                        *
*     (Graphics Processing Units Molecular Dynamics)          *
*                     Version 3.6                             *
*              This is the gpumd executable                   *
***************************************************************


---------------------------------------------------------------
Compiling options:
---------------------------------------------------------------

DEBUG is off: Use different PRNG seeds for different runs.

---------------------------------------------------------------
GPU information:
---------------------------------------------------------------

number of GPUs = 1
Device id:                   0
    Device name:             NVIDIA GeForce RTX 3090 Ti
    Compute capability:      8.6
    Amount of global memory: 23.6848 GB
    Number of SMs:           84

---------------------------------------------------------------
Started running GPUMD.
---------------------------------------------------------------


---------------------------------------------------------------
Started initializing positions and related parameters.
---------------------------------------------------------------

Number of atoms is 73728.
Use periodic boundary conditions along x.
Use periodic boundary conditions along y.
Use periodic boundary conditions along z.
Use orthogonal box.
Box lengths are
    Lx =     1.0389114000e+02 A
    Ly =     1.0389114000e+02 A
    Lz =     1.0389114000e+02 A
Do not specify initial velocities here.
Have no grouping method.
There are 2 atom types.
    49152 atoms of type 0.
    24576 atoms of type 1.

---------------------------------------------------------------
Finished initializing positions and related parameters.
---------------------------------------------------------------


---------------------------------------------------------------
Started executing the commands in run.in.
---------------------------------------------------------------

Use the NEP4 potential with 2 atom types.
    type 0 (O with Z = 8).
    type 1 (Si with Z = 14).
    radial cutoff = 6 A.
    angular cutoff = 4 A.
    MN_radial = 136.
    MN_angular = 48.
    enlarged MN_radial = 170.
    enlarged MN_angular = 60.
    n_max_radial = 8.
    n_max_angular = 8.
    basis_size_radial = 8.
    basis_size_angular = 8.
    l_max_3body = 4.
    l_max_4body = 2.
    l_max_5body = 0.
    ANN = 54-80-1.
    number of neural network parameters = 8961.
    number of descriptor parameters = 648.
    total number of parameters = 9609
Initialized velocities with T = 350 K.
Use NVT ensemble for this run.
    choose the Nose-Hoover chain method.
    initial temperature is 350 K.
    final temperature is 350 K.
    tau_T is 100 time_step.
Time step for this run is 1 fs.
Dump thermo every 20000 steps.
Dump position.
    every 400000 steps.
Run 400000 steps.
Neighbor info: radial (max=170, actual=79), angular (max=60, actual=27).
Neighbor info: radial (max=170, actual=79), angular (max=60, actual=28).
Neighbor info: radial (max=170, actual=78), angular (max=60, actual=27).
Neighbor info: radial (max=170, actual=77), angular (max=60, actual=27).
Neighbor info: radial (max=170, actual=78), angular (max=60, actual=27).
Neighbor info: radial (max=170, actual=78), angular (max=60, actual=27).
Neighbor info: radial (max=170, actual=79), angular (max=60, actual=28).
Neighbor info: radial (max=170, actual=79), angular (max=60, actual=28).
Neighbor info: radial (max=170, actual=79), angular (max=60, actual=27).
Neighbor info: radial (max=170, actual=77), angular (max=60, actual=28).
Neighbor info: radial (max=170, actual=78), angular (max=60, actual=28).
Neighbor info: radial (max=170, actual=79), angular (max=60, actual=27).
Neighbor info: radial (max=170, actual=77), angular (max=60, actual=28).
Neighbor info: radial (max=170, actual=77), angular (max=60, actual=27).
Neighbor info: radial (max=170, actual=79), angular (max=60, actual=27).
Neighbor info: radial (max=170, actual=79), angular (max=60, actual=26).
Neighbor info: radial (max=170, actual=80), angular (max=60, actual=27).
Neighbor info: radial (max=170, actual=80), angular (max=60, actual=27).
Neighbor info: radial (max=170, actual=79), angular (max=60, actual=26).
Neighbor info: radial (max=170, actual=78), angular (max=60, actual=27).
Neighbor info: radial (max=170, actual=79), angular (max=60, actual=28).
Neighbor info: radial (max=170, actual=78), angular (max=60, actual=27).
Neighbor info: radial (max=170, actual=80), angular (max=60, actual=27).
Neighbor info: radial (max=170, actual=80), angular (max=60, actual=26).
Neighbor info: radial (max=170, actual=78), angular (max=60, actual=27).
Neighbor info: radial (max=170, actual=78), angular (max=60, actual=27).
Neighbor info: radial (max=170, actual=80), angular (max=60, actual=27).
Neighbor info: radial (max=170, actual=80), angular (max=60, actual=27).
Neighbor info: radial (max=170, actual=77), angular (max=60, actual=27).
Neighbor info: radial (max=170, actual=79), angular (max=60, actual=27).
Neighbor info: radial (max=170, actual=80), angular (max=60, actual=27).
Neighbor info: radial (max=170, actual=80), angular (max=60, actual=28).
Neighbor info: radial (max=170, actual=78), angular (max=60, actual=28).
Neighbor info: radial (max=170, actual=77), angular (max=60, actual=27).
Neighbor info: radial (max=170, actual=78), angular (max=60, actual=28).
Neighbor info: radial (max=170, actual=77), angular (max=60, actual=29).
Neighbor info: radial (max=170, actual=80), angular (max=60, actual=27).
Neighbor info: radial (max=170, actual=78), angular (max=60, actual=27).
Neighbor info: radial (max=170, actual=80), angular (max=60, actual=27).
Neighbor info: radial (max=170, actual=81), angular (max=60, actual=27).
    40000 steps completed.
Neighbor info: radial (max=170, actual=79), angular (max=60, actual=26).
Neighbor info: radial (max=170, actual=78), angular (max=60, actual=27).
Neighbor info: radial (max=170, actual=79), angular (max=60, actual=27).
Neighbor info: radial (max=170, actual=79), angular (max=60, actual=28).
Neighbor info: radial (max=170, actual=78), angular (max=60, actual=27).
Neighbor info: radial (max=170, actual=81), angular (max=60, actual=28).
Neighbor info: radial (max=170, actual=81), angular (max=60, actual=28).
Neighbor info: radial (max=170, actual=78), angular (max=60, actual=27).
Neighbor info: radial (max=170, actual=81), angular (max=60, actual=26).
Neighbor info: radial (max=170, actual=80), angular (max=60, actual=27).
Neighbor info: radial (max=170, actual=79), angular (max=60, actual=27).
Neighbor info: radial (max=170, actual=79), angular (max=60, actual=26).
Neighbor info: radial (max=170, actual=78), angular (max=60, actual=27).
Neighbor info: radial (max=170, actual=79), angular (max=60, actual=27).
Neighbor info: radial (max=170, actual=79), angular (max=60, actual=27).
Neighbor info: radial (max=170, actual=81), angular (max=60, actual=27).
Neighbor info: radial (max=170, actual=77), angular (max=60, actual=27).
Neighbor info: radial (max=170, actual=78), angular (max=60, actual=27).
Neighbor info: radial (max=170, actual=78), angular (max=60, actual=27).
Neighbor info: radial (max=170, actual=78), angular (max=60, actual=28).
Neighbor info: radial (max=170, actual=81), angular (max=60, actual=28).
Neighbor info: radial (max=170, actual=81), angular (max=60, actual=26).
Neighbor info: radial (max=170, actual=79), angular (max=60, actual=26).
Neighbor info: radial (max=170, actual=77), angular (max=60, actual=27).
Neighbor info: radial (max=170, actual=78), angular (max=60, actual=26).
Neighbor info: radial (max=170, actual=78), angular (max=60, actual=27).
Neighbor info: radial (max=170, actual=82), angular (max=60, actual=27).
Neighbor info: radial (max=170, actual=79), angular (max=60, actual=27).
Neighbor info: radial (max=170, actual=79), angular (max=60, actual=26).
Neighbor info: radial (max=170, actual=77), angular (max=60, actual=27).
Neighbor info: radial (max=170, actual=77), angular (max=60, actual=27).
Neighbor info: radial (max=170, actual=79), angular (max=60, actual=27).
Neighbor info: radial (max=170, actual=78), angular (max=60, actual=28).
Neighbor info: radial (max=170, actual=79), angular (max=60, actual=27).
Neighbor info: radial (max=170, actual=79), angular (max=60, actual=27).
Neighbor info: radial (max=170, actual=81), angular (max=60, actual=27).
Neighbor info: radial (max=170, actual=78), angular (max=60, actual=26).
Neighbor info: radial (max=170, actual=79), angular (max=60, actual=27).
Neighbor info: radial (max=170, actual=82), angular (max=60, actual=27).
Neighbor info: radial (max=170, actual=78), angular (max=60, actual=28).
    80000 steps completed.
Neighbor info: radial (max=170, actual=79), angular (max=60, actual=28).
Neighbor info: radial (max=170, actual=80), angular (max=60, actual=28).
Neighbor info: radial (max=170, actual=79), angular (max=60, actual=27).
Neighbor info: radial (max=170, actual=80), angular (max=60, actual=27).
Neighbor info: radial (max=170, actual=80), angular (max=60, actual=26).
Neighbor info: radial (max=170, actual=78), angular (max=60, actual=27).
Neighbor info: radial (max=170, actual=81), angular (max=60, actual=27).
Neighbor info: radial (max=170, actual=79), angular (max=60, actual=27).
Neighbor info: radial (max=170, actual=80), angular (max=60, actual=26).
Neighbor info: radial (max=170, actual=79), angular (max=60, actual=27).
Neighbor info: radial (max=170, actual=80), angular (max=60, actual=27).
Neighbor info: radial (max=170, actual=78), angular (max=60, actual=28).
Neighbor info: radial (max=170, actual=77), angular (max=60, actual=28).
Neighbor info: radial (max=170, actual=79), angular (max=60, actual=26).
Neighbor info: radial (max=170, actual=79), angular (max=60, actual=26).
Neighbor info: radial (max=170, actual=82), angular (max=60, actual=26).
Neighbor info: radial (max=170, actual=78), angular (max=60, actual=27).
Neighbor info: radial (max=170, actual=79), angular (max=60, actual=27).
Neighbor info: radial (max=170, actual=79), angular (max=60, actual=28).
Neighbor info: radial (max=170, actual=80), angular (max=60, actual=27).
Neighbor info: radial (max=170, actual=77), angular (max=60, actual=27).
Neighbor info: radial (max=170, actual=80), angular (max=60, actual=27).
Neighbor info: radial (max=170, actual=78), angular (max=60, actual=26).
Neighbor info: radial (max=170, actual=77), angular (max=60, actual=27).
Neighbor info: radial (max=170, actual=79), angular (max=60, actual=27).
Neighbor info: radial (max=170, actual=79), angular (max=60, actual=28).
Neighbor info: radial (max=170, actual=82), angular (max=60, actual=27).
Neighbor info: radial (max=170, actual=79), angular (max=60, actual=28).
Neighbor info: radial (max=170, actual=79), angular (max=60, actual=26).
Neighbor info: radial (max=170, actual=78), angular (max=60, actual=27).
Neighbor info: radial (max=170, actual=78), angular (max=60, actual=26).
Neighbor info: radial (max=170, actual=80), angular (max=60, actual=27).
Neighbor info: radial (max=170, actual=79), angular (max=60, actual=26).
Neighbor info: radial (max=170, actual=78), angular (max=60, actual=27).
Neighbor info: radial (max=170, actual=79), angular (max=60, actual=28).
Neighbor info: radial (max=170, actual=79), angular (max=60, actual=27).
Neighbor info: radial (max=170, actual=79), angular (max=60, actual=27).
Neighbor info: radial (max=170, actual=78), angular (max=60, actual=26).
Neighbor info: radial (max=170, actual=77), angular (max=60, actual=26).
Neighbor info: radial (max=170, actual=78), angular (max=60, actual=27).
    120000 steps completed.
Neighbor info: radial (max=170, actual=77), angular (max=60, actual=27).
Neighbor info: radial (max=170, actual=78), angular (max=60, actual=29).
Neighbor info: radial (max=170, actual=79), angular (max=60, actual=28).
Neighbor info: radial (max=170, actual=78), angular (max=60, actual=27).
Neighbor info: radial (max=170, actual=79), angular (max=60, actual=28).
Neighbor info: radial (max=170, actual=79), angular (max=60, actual=27).
Neighbor info: radial (max=170, actual=79), angular (max=60, actual=28).
Neighbor info: radial (max=170, actual=81), angular (max=60, actual=27).
Neighbor info: radial (max=170, actual=80), angular (max=60, actual=28).
Neighbor info: radial (max=170, actual=81), angular (max=60, actual=26).
Neighbor info: radial (max=170, actual=82), angular (max=60, actual=27).
Neighbor info: radial (max=170, actual=78), angular (max=60, actual=28).
Neighbor info: radial (max=170, actual=79), angular (max=60, actual=27).
Neighbor info: radial (max=170, actual=80), angular (max=60, actual=27).
Neighbor info: radial (max=170, actual=78), angular (max=60, actual=27).
Neighbor info: radial (max=170, actual=80), angular (max=60, actual=28).
Neighbor info: radial (max=170, actual=79), angular (max=60, actual=27).
Neighbor info: radial (max=170, actual=79), angular (max=60, actual=28).
Neighbor info: radial (max=170, actual=77), angular (max=60, actual=28).
Neighbor info: radial (max=170, actual=79), angular (max=60, actual=27).
Neighbor info: radial (max=170, actual=81), angular (max=60, actual=28).
Neighbor info: radial (max=170, actual=79), angular (max=60, actual=28).
Neighbor info: radial (max=170, actual=79), angular (max=60, actual=28).
Neighbor info: radial (max=170, actual=79), angular (max=60, actual=27).
Neighbor info: radial (max=170, actual=79), angular (max=60, actual=27).
Neighbor info: radial (max=170, actual=81), angular (max=60, actual=26).
Neighbor info: radial (max=170, actual=80), angular (max=60, actual=27).
Neighbor info: radial (max=170, actual=80), angular (max=60, actual=27).
Neighbor info: radial (max=170, actual=79), angular (max=60, actual=27).
Neighbor info: radial (max=170, actual=78), angular (max=60, actual=26).
Neighbor info: radial (max=170, actual=79), angular (max=60, actual=27).
Neighbor info: radial (max=170, actual=78), angular (max=60, actual=27).
Neighbor info: radial (max=170, actual=78), angular (max=60, actual=27).
Neighbor info: radial (max=170, actual=77), angular (max=60, actual=27).
Neighbor info: radial (max=170, actual=78), angular (max=60, actual=27).
Neighbor info: radial (max=170, actual=79), angular (max=60, actual=27).
Neighbor info: radial (max=170, actual=78), angular (max=60, actual=28).
Neighbor info: radial (max=170, actual=76), angular (max=60, actual=27).
Neighbor info: radial (max=170, actual=79), angular (max=60, actual=27).
Neighbor info: radial (max=170, actual=81), angular (max=60, actual=26).
    160000 steps completed.
Neighbor info: radial (max=170, actual=79), angular (max=60, actual=28).
Neighbor info: radial (max=170, actual=78), angular (max=60, actual=27).
Neighbor info: radial (max=170, actual=79), angular (max=60, actual=27).
Neighbor info: radial (max=170, actual=78), angular (max=60, actual=27).
Neighbor info: radial (max=170, actual=80), angular (max=60, actual=27).
Neighbor info: radial (max=170, actual=77), angular (max=60, actual=26).
Neighbor info: radial (max=170, actual=81), angular (max=60, actual=27).
Neighbor info: radial (max=170, actual=80), angular (max=60, actual=27).
Neighbor info: radial (max=170, actual=81), angular (max=60, actual=27).
Neighbor info: radial (max=170, actual=79), angular (max=60, actual=28).
Neighbor info: radial (max=170, actual=78), angular (max=60, actual=27).
Neighbor info: radial (max=170, actual=77), angular (max=60, actual=28).
Neighbor info: radial (max=170, actual=77), angular (max=60, actual=26).
Neighbor info: radial (max=170, actual=78), angular (max=60, actual=28).
Neighbor info: radial (max=170, actual=78), angular (max=60, actual=27).
Neighbor info: radial (max=170, actual=78), angular (max=60, actual=27).
Neighbor info: radial (max=170, actual=80), angular (max=60, actual=27).
Neighbor info: radial (max=170, actual=79), angular (max=60, actual=27).
Neighbor info: radial (max=170, actual=78), angular (max=60, actual=27).
Neighbor info: radial (max=170, actual=79), angular (max=60, actual=27).
Neighbor info: radial (max=170, actual=78), angular (max=60, actual=27).
Neighbor info: radial (max=170, actual=80), angular (max=60, actual=26).
Neighbor info: radial (max=170, actual=80), angular (max=60, actual=29).
Neighbor info: radial (max=170, actual=77), angular (max=60, actual=28).
Neighbor info: radial (max=170, actual=79), angular (max=60, actual=27).
Neighbor info: radial (max=170, actual=78), angular (max=60, actual=27).
Neighbor info: radial (max=170, actual=80), angular (max=60, actual=27).
Neighbor info: radial (max=170, actual=78), angular (max=60, actual=27).
Neighbor info: radial (max=170, actual=79), angular (max=60, actual=27).
Neighbor info: radial (max=170, actual=78), angular (max=60, actual=28).
Neighbor info: radial (max=170, actual=81), angular (max=60, actual=28).
Neighbor info: radial (max=170, actual=78), angular (max=60, actual=27).
Neighbor info: radial (max=170, actual=79), angular (max=60, actual=27).
Neighbor info: radial (max=170, actual=78), angular (max=60, actual=28).
Neighbor info: radial (max=170, actual=78), angular (max=60, actual=28).
Neighbor info: radial (max=170, actual=79), angular (max=60, actual=28).
Neighbor info: radial (max=170, actual=79), angular (max=60, actual=27).
Neighbor info: radial (max=170, actual=80), angular (max=60, actual=26).
Neighbor info: radial (max=170, actual=78), angular (max=60, actual=29).
Neighbor info: radial (max=170, actual=79), angular (max=60, actual=26).
    200000 steps completed.
Neighbor info: radial (max=170, actual=79), angular (max=60, actual=27).
Neighbor info: radial (max=170, actual=79), angular (max=60, actual=26).
Neighbor info: radial (max=170, actual=80), angular (max=60, actual=26).
Neighbor info: radial (max=170, actual=80), angular (max=60, actual=26).
Neighbor info: radial (max=170, actual=77), angular (max=60, actual=27).
Neighbor info: radial (max=170, actual=79), angular (max=60, actual=28).
Neighbor info: radial (max=170, actual=80), angular (max=60, actual=27).
Neighbor info: radial (max=170, actual=79), angular (max=60, actual=27).
Neighbor info: radial (max=170, actual=77), angular (max=60, actual=27).
Neighbor info: radial (max=170, actual=79), angular (max=60, actual=27).
Neighbor info: radial (max=170, actual=79), angular (max=60, actual=27).
Neighbor info: radial (max=170, actual=79), angular (max=60, actual=26).
Neighbor info: radial (max=170, actual=79), angular (max=60, actual=28).
Neighbor info: radial (max=170, actual=79), angular (max=60, actual=28).
Neighbor info: radial (max=170, actual=81), angular (max=60, actual=28).
Neighbor info: radial (max=170, actual=80), angular (max=60, actual=28).
Neighbor info: radial (max=170, actual=79), angular (max=60, actual=27).
Neighbor info: radial (max=170, actual=80), angular (max=60, actual=27).
Neighbor info: radial (max=170, actual=79), angular (max=60, actual=27).
Neighbor info: radial (max=170, actual=78), angular (max=60, actual=27).
Neighbor info: radial (max=170, actual=77), angular (max=60, actual=27).
Neighbor info: radial (max=170, actual=77), angular (max=60, actual=28).
Neighbor info: radial (max=170, actual=79), angular (max=60, actual=27).
Neighbor info: radial (max=170, actual=80), angular (max=60, actual=27).
Neighbor info: radial (max=170, actual=80), angular (max=60, actual=27).
Neighbor info: radial (max=170, actual=79), angular (max=60, actual=28).
Neighbor info: radial (max=170, actual=80), angular (max=60, actual=27).
Neighbor info: radial (max=170, actual=79), angular (max=60, actual=27).
Neighbor info: radial (max=170, actual=83), angular (max=60, actual=28).
Neighbor info: radial (max=170, actual=79), angular (max=60, actual=27).
Neighbor info: radial (max=170, actual=78), angular (max=60, actual=28).
Neighbor info: radial (max=170, actual=82), angular (max=60, actual=26).
Neighbor info: radial (max=170, actual=78), angular (max=60, actual=27).
Neighbor info: radial (max=170, actual=80), angular (max=60, actual=27).
Neighbor info: radial (max=170, actual=78), angular (max=60, actual=26).
Neighbor info: radial (max=170, actual=80), angular (max=60, actual=27).
Neighbor info: radial (max=170, actual=79), angular (max=60, actual=27).
Neighbor info: radial (max=170, actual=80), angular (max=60, actual=27).
Neighbor info: radial (max=170, actual=79), angular (max=60, actual=27).
Neighbor info: radial (max=170, actual=80), angular (max=60, actual=28).
    240000 steps completed.
Neighbor info: radial (max=170, actual=80), angular (max=60, actual=26).
Neighbor info: radial (max=170, actual=78), angular (max=60, actual=27).
Neighbor info: radial (max=170, actual=78), angular (max=60, actual=27).
Neighbor info: radial (max=170, actual=79), angular (max=60, actual=27).
Neighbor info: radial (max=170, actual=77), angular (max=60, actual=27).
Neighbor info: radial (max=170, actual=80), angular (max=60, actual=26).
Neighbor info: radial (max=170, actual=77), angular (max=60, actual=27).
Neighbor info: radial (max=170, actual=78), angular (max=60, actual=27).
Neighbor info: radial (max=170, actual=80), angular (max=60, actual=26).
Neighbor info: radial (max=170, actual=78), angular (max=60, actual=26).
Neighbor info: radial (max=170, actual=79), angular (max=60, actual=28).
Neighbor info: radial (max=170, actual=79), angular (max=60, actual=28).
Neighbor info: radial (max=170, actual=79), angular (max=60, actual=27).
Neighbor info: radial (max=170, actual=77), angular (max=60, actual=27).
Neighbor info: radial (max=170, actual=78), angular (max=60, actual=27).
Neighbor info: radial (max=170, actual=80), angular (max=60, actual=26).
Neighbor info: radial (max=170, actual=78), angular (max=60, actual=27).
Neighbor info: radial (max=170, actual=79), angular (max=60, actual=27).
Neighbor info: radial (max=170, actual=78), angular (max=60, actual=26).
Neighbor info: radial (max=170, actual=78), angular (max=60, actual=27).
Neighbor info: radial (max=170, actual=78), angular (max=60, actual=27).
Neighbor info: radial (max=170, actual=81), angular (max=60, actual=27).
Neighbor info: radial (max=170, actual=81), angular (max=60, actual=28).
Neighbor info: radial (max=170, actual=78), angular (max=60, actual=27).
Neighbor info: radial (max=170, actual=78), angular (max=60, actual=28).
Neighbor info: radial (max=170, actual=80), angular (max=60, actual=28).
Neighbor info: radial (max=170, actual=78), angular (max=60, actual=26).
Neighbor info: radial (max=170, actual=78), angular (max=60, actual=27).
Neighbor info: radial (max=170, actual=78), angular (max=60, actual=28).
Neighbor info: radial (max=170, actual=79), angular (max=60, actual=27).
Neighbor info: radial (max=170, actual=78), angular (max=60, actual=27).
Neighbor info: radial (max=170, actual=78), angular (max=60, actual=27).
Neighbor info: radial (max=170, actual=79), angular (max=60, actual=26).
Neighbor info: radial (max=170, actual=79), angular (max=60, actual=27).
Neighbor info: radial (max=170, actual=79), angular (max=60, actual=27).
Neighbor info: radial (max=170, actual=81), angular (max=60, actual=28).
Neighbor info: radial (max=170, actual=79), angular (max=60, actual=27).
Neighbor info: radial (max=170, actual=80), angular (max=60, actual=27).
Neighbor info: radial (max=170, actual=81), angular (max=60, actual=26).
Neighbor info: radial (max=170, actual=80), angular (max=60, actual=27).
    280000 steps completed.
Neighbor info: radial (max=170, actual=78), angular (max=60, actual=27).
Neighbor info: radial (max=170, actual=80), angular (max=60, actual=28).
Neighbor info: radial (max=170, actual=79), angular (max=60, actual=28).
Neighbor info: radial (max=170, actual=79), angular (max=60, actual=27).
Neighbor info: radial (max=170, actual=77), angular (max=60, actual=28).
Neighbor info: radial (max=170, actual=80), angular (max=60, actual=27).
Neighbor info: radial (max=170, actual=78), angular (max=60, actual=27).
Neighbor info: radial (max=170, actual=78), angular (max=60, actual=28).
Neighbor info: radial (max=170, actual=81), angular (max=60, actual=28).
Neighbor info: radial (max=170, actual=79), angular (max=60, actual=26).
Neighbor info: radial (max=170, actual=78), angular (max=60, actual=28).
Neighbor info: radial (max=170, actual=79), angular (max=60, actual=27).
Neighbor info: radial (max=170, actual=79), angular (max=60, actual=27).
Neighbor info: radial (max=170, actual=82), angular (max=60, actual=27).
Neighbor info: radial (max=170, actual=79), angular (max=60, actual=27).
Neighbor info: radial (max=170, actual=79), angular (max=60, actual=27).
Neighbor info: radial (max=170, actual=81), angular (max=60, actual=28).
Neighbor info: radial (max=170, actual=78), angular (max=60, actual=27).
Neighbor info: radial (max=170, actual=78), angular (max=60, actual=27).
Neighbor info: radial (max=170, actual=77), angular (max=60, actual=28).
Neighbor info: radial (max=170, actual=79), angular (max=60, actual=27).
Neighbor info: radial (max=170, actual=78), angular (max=60, actual=27).
Neighbor info: radial (max=170, actual=79), angular (max=60, actual=27).
Neighbor info: radial (max=170, actual=79), angular (max=60, actual=28).
Neighbor info: radial (max=170, actual=78), angular (max=60, actual=27).
Neighbor info: radial (max=170, actual=79), angular (max=60, actual=27).
Neighbor info: radial (max=170, actual=77), angular (max=60, actual=27).
Neighbor info: radial (max=170, actual=78), angular (max=60, actual=27).
Neighbor info: radial (max=170, actual=78), angular (max=60, actual=27).
Neighbor info: radial (max=170, actual=80), angular (max=60, actual=28).
Neighbor info: radial (max=170, actual=78), angular (max=60, actual=27).
Neighbor info: radial (max=170, actual=79), angular (max=60, actual=27).
Neighbor info: radial (max=170, actual=79), angular (max=60, actual=27).
Neighbor info: radial (max=170, actual=78), angular (max=60, actual=27).
Neighbor info: radial (max=170, actual=77), angular (max=60, actual=26).
Neighbor info: radial (max=170, actual=81), angular (max=60, actual=27).
Neighbor info: radial (max=170, actual=79), angular (max=60, actual=28).
Neighbor info: radial (max=170, actual=80), angular (max=60, actual=27).
Neighbor info: radial (max=170, actual=78), angular (max=60, actual=28).
Neighbor info: radial (max=170, actual=79), angular (max=60, actual=27).
    320000 steps completed.
Neighbor info: radial (max=170, actual=79), angular (max=60, actual=27).
Neighbor info: radial (max=170, actual=79), angular (max=60, actual=27).
Neighbor info: radial (max=170, actual=78), angular (max=60, actual=27).
Neighbor info: radial (max=170, actual=78), angular (max=60, actual=28).
Neighbor info: radial (max=170, actual=78), angular (max=60, actual=26).
Neighbor info: radial (max=170, actual=80), angular (max=60, actual=26).
Neighbor info: radial (max=170, actual=78), angular (max=60, actual=27).
Neighbor info: radial (max=170, actual=81), angular (max=60, actual=28).
Neighbor info: radial (max=170, actual=78), angular (max=60, actual=27).
Neighbor info: radial (max=170, actual=79), angular (max=60, actual=27).
Neighbor info: radial (max=170, actual=78), angular (max=60, actual=28).
Neighbor info: radial (max=170, actual=80), angular (max=60, actual=27).
Neighbor info: radial (max=170, actual=79), angular (max=60, actual=26).
Neighbor info: radial (max=170, actual=79), angular (max=60, actual=27).
Neighbor info: radial (max=170, actual=79), angular (max=60, actual=27).
Neighbor info: radial (max=170, actual=79), angular (max=60, actual=27).
Neighbor info: radial (max=170, actual=79), angular (max=60, actual=28).
Neighbor info: radial (max=170, actual=78), angular (max=60, actual=27).
Neighbor info: radial (max=170, actual=82), angular (max=60, actual=27).
Neighbor info: radial (max=170, actual=80), angular (max=60, actual=28).
Neighbor info: radial (max=170, actual=80), angular (max=60, actual=27).
Neighbor info: radial (max=170, actual=80), angular (max=60, actual=28).
Neighbor info: radial (max=170, actual=80), angular (max=60, actual=28).
Neighbor info: radial (max=170, actual=79), angular (max=60, actual=27).
Neighbor info: radial (max=170, actual=78), angular (max=60, actual=27).
Neighbor info: radial (max=170, actual=79), angular (max=60, actual=27).
Neighbor info: radial (max=170, actual=80), angular (max=60, actual=26).
Neighbor info: radial (max=170, actual=78), angular (max=60, actual=27).
Neighbor info: radial (max=170, actual=80), angular (max=60, actual=28).
Neighbor info: radial (max=170, actual=80), angular (max=60, actual=26).
Neighbor info: radial (max=170, actual=79), angular (max=60, actual=26).
Neighbor info: radial (max=170, actual=78), angular (max=60, actual=26).
Neighbor info: radial (max=170, actual=80), angular (max=60, actual=28).
Neighbor info: radial (max=170, actual=79), angular (max=60, actual=27).
Neighbor info: radial (max=170, actual=78), angular (max=60, actual=27).
Neighbor info: radial (max=170, actual=79), angular (max=60, actual=27).
Neighbor info: radial (max=170, actual=79), angular (max=60, actual=27).
Neighbor info: radial (max=170, actual=79), angular (max=60, actual=27).
Neighbor info: radial (max=170, actual=80), angular (max=60, actual=27).
Neighbor info: radial (max=170, actual=80), angular (max=60, actual=29).
    360000 steps completed.
Neighbor info: radial (max=170, actual=79), angular (max=60, actual=27).
Neighbor info: radial (max=170, actual=79), angular (max=60, actual=27).
Neighbor info: radial (max=170, actual=78), angular (max=60, actual=27).
Neighbor info: radial (max=170, actual=80), angular (max=60, actual=27).
Neighbor info: radial (max=170, actual=79), angular (max=60, actual=28).
Neighbor info: radial (max=170, actual=79), angular (max=60, actual=27).
Neighbor info: radial (max=170, actual=80), angular (max=60, actual=27).
Neighbor info: radial (max=170, actual=80), angular (max=60, actual=27).
Neighbor info: radial (max=170, actual=79), angular (max=60, actual=29).
Neighbor info: radial (max=170, actual=80), angular (max=60, actual=27).
Neighbor info: radial (max=170, actual=79), angular (max=60, actual=27).
Neighbor info: radial (max=170, actual=78), angular (max=60, actual=28).
Neighbor info: radial (max=170, actual=80), angular (max=60, actual=28).
Neighbor info: radial (max=170, actual=81), angular (max=60, actual=27).
Neighbor info: radial (max=170, actual=77), angular (max=60, actual=27).
Neighbor info: radial (max=170, actual=79), angular (max=60, actual=27).
Neighbor info: radial (max=170, actual=80), angular (max=60, actual=28).
Neighbor info: radial (max=170, actual=79), angular (max=60, actual=26).
Neighbor info: radial (max=170, actual=79), angular (max=60, actual=27).
Neighbor info: radial (max=170, actual=79), angular (max=60, actual=27).
Neighbor info: radial (max=170, actual=80), angular (max=60, actual=27).
Neighbor info: radial (max=170, actual=80), angular (max=60, actual=27).
Neighbor info: radial (max=170, actual=79), angular (max=60, actual=27).
Neighbor info: radial (max=170, actual=78), angular (max=60, actual=28).
Neighbor info: radial (max=170, actual=79), angular (max=60, actual=26).
Neighbor info: radial (max=170, actual=78), angular (max=60, actual=27).
Neighbor info: radial (max=170, actual=79), angular (max=60, actual=27).
Neighbor info: radial (max=170, actual=78), angular (max=60, actual=26).
Neighbor info: radial (max=170, actual=81), angular (max=60, actual=26).
Neighbor info: radial (max=170, actual=78), angular (max=60, actual=27).
Neighbor info: radial (max=170, actual=79), angular (max=60, actual=27).
Neighbor info: radial (max=170, actual=80), angular (max=60, actual=28).
Neighbor info: radial (max=170, actual=80), angular (max=60, actual=27).
Neighbor info: radial (max=170, actual=79), angular (max=60, actual=26).
Neighbor info: radial (max=170, actual=78), angular (max=60, actual=27).
Neighbor info: radial (max=170, actual=78), angular (max=60, actual=26).
Neighbor info: radial (max=170, actual=79), angular (max=60, actual=26).
Neighbor info: radial (max=170, actual=78), angular (max=60, actual=26).
Neighbor info: radial (max=170, actual=79), angular (max=60, actual=27).
Neighbor info: radial (max=170, actual=77), angular (max=60, actual=27).
    400000 steps completed.

---------------------------------------------------------------
Time used for this run = 5543.4 second.
Speed of this run = 5.32006e+06 atom*step/second.
---------------------------------------------------------------

Use NVT ensemble for this run.
    choose the Nose-Hoover chain method.
    initial temperature is 350 K.
    final temperature is 350 K.
    tau_T is 100 time_step.
Compute thermal conductivity using the HNEMD method.
    output_interval = 1000
    fe_x = 0 /A
    fe_y = 0 /A
    fe_z = 0.0002 /A
Compute SHC.
    sampling interval for SHC is 2.
    number of correlation data is 500.
    transport direction is z.
    num_omega for SHC is 1000.
    max_omega for SHC is 400.
Dump position.
    every 4000000 steps.
Run 4000000 steps.
Neighbor info: radial (max=170, actual=80), angular (max=60, actual=27).
Neighbor info: radial (max=170, actual=79), angular (max=60, actual=27).
Neighbor info: radial (max=170, actual=79), angular (max=60, actual=27).
Neighbor info: radial (max=170, actual=78), angular (max=60, actual=27).
Neighbor info: radial (max=170, actual=80), angular (max=60, actual=28).
Neighbor info: radial (max=170, actual=78), angular (max=60, actual=27).
Neighbor info: radial (max=170, actual=79), angular (max=60, actual=27).
Neighbor info: radial (max=170, actual=78), angular (max=60, actual=27).
Neighbor info: radial (max=170, actual=79), angular (max=60, actual=27).
Neighbor info: radial (max=170, actual=78), angular (max=60, actual=28).
Neighbor info: radial (max=170, actual=80), angular (max=60, actual=27).
Neighbor info: radial (max=170, actual=78), angular (max=60, actual=27).
Neighbor info: radial (max=170, actual=80), angular (max=60, actual=27).
Neighbor info: radial (max=170, actual=79), angular (max=60, actual=27).
Neighbor info: radial (max=170, actual=79), angular (max=60, actual=28).
Neighbor info: radial (max=170, actual=80), angular (max=60, actual=28).
Neighbor info: radial (max=170, actual=78), angular (max=60, actual=26).
Neighbor info: radial (max=170, actual=80), angular (max=60, actual=28).
Neighbor info: radial (max=170, actual=80), angular (max=60, actual=28).
Neighbor info: radial (max=170, actual=77), angular (max=60, actual=27).
Neighbor info: radial (max=170, actual=78), angular (max=60, actual=26).
Neighbor info: radial (max=170, actual=79), angular (max=60, actual=27).
Neighbor info: radial (max=170, actual=80), angular (max=60, actual=27).
Neighbor info: radial (max=170, actual=80), angular (max=60, actual=28).
Neighbor info: radial (max=170, actual=80), angular (max=60, actual=28).
Neighbor info: radial (max=170, actual=79), angular (max=60, actual=27).
Neighbor info: radial (max=170, actual=79), angular (max=60, actual=28).
Neighbor info: radial (max=170, actual=81), angular (max=60, actual=28).
Neighbor info: radial (max=170, actual=79), angular (max=60, actual=27).
Neighbor info: radial (max=170, actual=78), angular (max=60, actual=27).
Neighbor info: radial (max=170, actual=78), angular (max=60, actual=28).
Neighbor info: radial (max=170, actual=78), angular (max=60, actual=27).
Neighbor info: radial (max=170, actual=78), angular (max=60, actual=28).
Neighbor info: radial (max=170, actual=80), angular (max=60, actual=28).
Neighbor info: radial (max=170, actual=79), angular (max=60, actual=28).
Neighbor info: radial (max=170, actual=81), angular (max=60, actual=27).
Neighbor info: radial (max=170, actual=81), angular (max=60, actual=27).
Neighbor info: radial (max=170, actual=77), angular (max=60, actual=27).
Neighbor info: radial (max=170, actual=81), angular (max=60, actual=27).
Neighbor info: radial (max=170, actual=79), angular (max=60, actual=27).
Neighbor info: radial (max=170, actual=77), angular (max=60, actual=26).
Neighbor info: radial (max=170, actual=78), angular (max=60, actual=27).
Neighbor info: radial (max=170, actual=78), angular (max=60, actual=27).
Neighbor info: radial (max=170, actual=78), angular (max=60, actual=28).
Neighbor info: radial (max=170, actual=78), angular (max=60, actual=27).
Neighbor info: radial (max=170, actual=82), angular (max=60, actual=27).
Neighbor info: radial (max=170, actual=79), angular (max=60, actual=27).
Neighbor info: radial (max=170, actual=79), angular (max=60, actual=28).
Neighbor info: radial (max=170, actual=80), angular (max=60, actual=28).
Neighbor info: radial (max=170, actual=78), angular (max=60, actual=26).
Neighbor info: radial (max=170, actual=78), angular (max=60, actual=26).
Neighbor info: radial (max=170, actual=77), angular (max=60, actual=28).
Neighbor info: radial (max=170, actual=80), angular (max=60, actual=27).
Neighbor info: radial (max=170, actual=79), angular (max=60, actual=27).
Neighbor info: radial (max=170, actual=77), angular (max=60, actual=27).
Neighbor info: radial (max=170, actual=77), angular (max=60, actual=28).
Neighbor info: radial (max=170, actual=79), angular (max=60, actual=27).
Neighbor info: radial (max=170, actual=77), angular (max=60, actual=27).
Neighbor info: radial (max=170, actual=79), angular (max=60, actual=27).
Neighbor info: radial (max=170, actual=79), angular (max=60, actual=27).
Neighbor info: radial (max=170, actual=79), angular (max=60, actual=27).
Neighbor info: radial (max=170, actual=80), angular (max=60, actual=26).
Neighbor info: radial (max=170, actual=77), angular (max=60, actual=27).
Neighbor info: radial (max=170, actual=78), angular (max=60, actual=26).
Neighbor info: radial (max=170, actual=76), angular (max=60, actual=27).
Neighbor info: radial (max=170, actual=80), angular (max=60, actual=27).
Neighbor info: radial (max=170, actual=77), angular (max=60, actual=28).
Neighbor info: radial (max=170, actual=77), angular (max=60, actual=28).
Neighbor info: radial (max=170, actual=79), angular (max=60, actual=27).
Neighbor info: radial (max=170, actual=79), angular (max=60, actual=27).
Neighbor info: radial (max=170, actual=78), angular (max=60, actual=28).
Neighbor info: radial (max=170, actual=79), angular (max=60, actual=27).
Neighbor info: radial (max=170, actual=78), angular (max=60, actual=28).
Neighbor info: radial (max=170, actual=78), angular (max=60, actual=27).
Neighbor info: radial (max=170, actual=78), angular (max=60, actual=28).
Neighbor info: radial (max=170, actual=79), angular (max=60, actual=27).
Neighbor info: radial (max=170, actual=81), angular (max=60, actual=27).
Neighbor info: radial (max=170, actual=78), angular (max=60, actual=27).
Neighbor info: radial (max=170, actual=79), angular (max=60, actual=28).
Neighbor info: radial (max=170, actual=79), angular (max=60, actual=28).
Neighbor info: radial (max=170, actual=78), angular (max=60, actual=28).
Neighbor info: radial (max=170, actual=78), angular (max=60, actual=26).
Neighbor info: radial (max=170, actual=78), angular (max=60, actual=28).
Neighbor info: radial (max=170, actual=79), angular (max=60, actual=27).
Neighbor info: radial (max=170, actual=79), angular (max=60, actual=28).
Neighbor info: radial (max=170, actual=79), angular (max=60, actual=27).
Neighbor info: radial (max=170, actual=79), angular (max=60, actual=27).
Neighbor info: radial (max=170, actual=80), angular (max=60, actual=27).
Neighbor info: radial (max=170, actual=79), angular (max=60, actual=27).
Neighbor info: radial (max=170, actual=81), angular (max=60, actual=28).
Neighbor info: radial (max=170, actual=79), angular (max=60, actual=27).
Neighbor info: radial (max=170, actual=77), angular (max=60, actual=28).
Neighbor info: radial (max=170, actual=77), angular (max=60, actual=27).
Neighbor info: radial (max=170, actual=79), angular (max=60, actual=26).
Neighbor info: radial (max=170, actual=80), angular (max=60, actual=27).
Neighbor info: radial (max=170, actual=80), angular (max=60, actual=27).
Neighbor info: radial (max=170, actual=79), angular (max=60, actual=27).
Neighbor info: radial (max=170, actual=80), angular (max=60, actual=27).
Neighbor info: radial (max=170, actual=79), angular (max=60, actual=28).
Neighbor info: radial (max=170, actual=79), angular (max=60, actual=27).
Neighbor info: radial (max=170, actual=80), angular (max=60, actual=27).
Neighbor info: radial (max=170, actual=78), angular (max=60, actual=27).
Neighbor info: radial (max=170, actual=80), angular (max=60, actual=28).
Neighbor info: radial (max=170, actual=77), angular (max=60, actual=28).
Neighbor info: radial (max=170, actual=79), angular (max=60, actual=27).
Neighbor info: radial (max=170, actual=79), angular (max=60, actual=26).
Neighbor info: radial (max=170, actual=79), angular (max=60, actual=28).
Neighbor info: radial (max=170, actual=78), angular (max=60, actual=26).
Neighbor info: radial (max=170, actual=81), angular (max=60, actual=27).
Neighbor info: radial (max=170, actual=80), angular (max=60, actual=28).
Neighbor info: radial (max=170, actual=78), angular (max=60, actual=28).
Neighbor info: radial (max=170, actual=78), angular (max=60, actual=27).
Neighbor info: radial (max=170, actual=79), angular (max=60, actual=27).
Neighbor info: radial (max=170, actual=80), angular (max=60, actual=27).
Neighbor info: radial (max=170, actual=79), angular (max=60, actual=26).
Neighbor info: radial (max=170, actual=80), angular (max=60, actual=27).
Neighbor info: radial (max=170, actual=80), angular (max=60, actual=27).
Neighbor info: radial (max=170, actual=78), angular (max=60, actual=27).
Neighbor info: radial (max=170, actual=77), angular (max=60, actual=27).
Neighbor info: radial (max=170, actual=76), angular (max=60, actual=27).
Neighbor info: radial (max=170, actual=78), angular (max=60, actual=28).
Neighbor info: radial (max=170, actual=78), angular (max=60, actual=27).
Neighbor info: radial (max=170, actual=79), angular (max=60, actual=28).
Neighbor info: radial (max=170, actual=78), angular (max=60, actual=27).
Neighbor info: radial (max=170, actual=78), angular (max=60, actual=27).
Neighbor info: radial (max=170, actual=80), angular (max=60, actual=28).
Neighbor info: radial (max=170, actual=80), angular (max=60, actual=29).
Neighbor info: radial (max=170, actual=80), angular (max=60, actual=28).
Neighbor info: radial (max=170, actual=80), angular (max=60, actual=27).
Neighbor info: radial (max=170, actual=78), angular (max=60, actual=27).
Neighbor info: radial (max=170, actual=79), angular (max=60, actual=30).
Neighbor info: radial (max=170, actual=78), angular (max=60, actual=26).
Neighbor info: radial (max=170, actual=79), angular (max=60, actual=29).
Neighbor info: radial (max=170, actual=78), angular (max=60, actual=28).
Neighbor info: radial (max=170, actual=77), angular (max=60, actual=27).
Neighbor info: radial (max=170, actual=78), angular (max=60, actual=28).
Neighbor info: radial (max=170, actual=79), angular (max=60, actual=27).
Neighbor info: radial (max=170, actual=78), angular (max=60, actual=28).
Neighbor info: radial (max=170, actual=79), angular (max=60, actual=28).
Neighbor info: radial (max=170, actual=80), angular (max=60, actual=27).
Neighbor info: radial (max=170, actual=80), angular (max=60, actual=27).
Neighbor info: radial (max=170, actual=78), angular (max=60, actual=28).
Neighbor info: radial (max=170, actual=79), angular (max=60, actual=28).
Neighbor info: radial (max=170, actual=78), angular (max=60, actual=28).
Neighbor info: radial (max=170, actual=79), angular (max=60, actual=28).
Neighbor info: radial (max=170, actual=78), angular (max=60, actual=28).
Neighbor info: radial (max=170, actual=80), angular (max=60, actual=26).
Neighbor info: radial (max=170, actual=78), angular (max=60, actual=27).
Neighbor info: radial (max=170, actual=80), angular (max=60, actual=27).
Neighbor info: radial (max=170, actual=79), angular (max=60, actual=27).
Neighbor info: radial (max=170, actual=78), angular (max=60, actual=28).
Neighbor info: radial (max=170, actual=80), angular (max=60, actual=28).
Neighbor info: radial (max=170, actual=80), angular (max=60, actual=28).
Neighbor info: radial (max=170, actual=79), angular (max=60, actual=28).
Neighbor info: radial (max=170, actual=79), angular (max=60, actual=27).
Neighbor info: radial (max=170, actual=79), angular (max=60, actual=28).
Neighbor info: radial (max=170, actual=79), angular (max=60, actual=27).
Neighbor info: radial (max=170, actual=78), angular (max=60, actual=28).
Neighbor info: radial (max=170, actual=78), angular (max=60, actual=28).
Neighbor info: radial (max=170, actual=80), angular (max=60, actual=28).
Neighbor info: radial (max=170, actual=78), angular (max=60, actual=27).
Neighbor info: radial (max=170, actual=79), angular (max=60, actual=27).
Neighbor info: radial (max=170, actual=80), angular (max=60, actual=27).
Neighbor info: radial (max=170, actual=79), angular (max=60, actual=27).
Neighbor info: radial (max=170, actual=79), angular (max=60, actual=27).
Neighbor info: radial (max=170, actual=79), angular (max=60, actual=27).
Neighbor info: radial (max=170, actual=80), angular (max=60, actual=27).
Neighbor info: radial (max=170, actual=80), angular (max=60, actual=27).
Neighbor info: radial (max=170, actual=80), angular (max=60, actual=27).
Neighbor info: radial (max=170, actual=78), angular (max=60, actual=28).
Neighbor info: radial (max=170, actual=80), angular (max=60, actual=27).
Neighbor info: radial (max=170, actual=78), angular (max=60, actual=27).
Neighbor info: radial (max=170, actual=78), angular (max=60, actual=27).
Neighbor info: radial (max=170, actual=79), angular (max=60, actual=28).
Neighbor info: radial (max=170, actual=76), angular (max=60, actual=27).
Neighbor info: radial (max=170, actual=79), angular (max=60, actual=27).
Neighbor info: radial (max=170, actual=78), angular (max=60, actual=28).
Neighbor info: radial (max=170, actual=79), angular (max=60, actual=26).
Neighbor info: radial (max=170, actual=78), angular (max=60, actual=27).
Neighbor info: radial (max=170, actual=80), angular (max=60, actual=27).
Neighbor info: radial (max=170, actual=81), angular (max=60, actual=27).
Neighbor info: radial (max=170, actual=78), angular (max=60, actual=26).
Neighbor info: radial (max=170, actual=80), angular (max=60, actual=27).
Neighbor info: radial (max=170, actual=80), angular (max=60, actual=27).
Neighbor info: radial (max=170, actual=82), angular (max=60, actual=27).
Neighbor info: radial (max=170, actual=78), angular (max=60, actual=27).
Neighbor info: radial (max=170, actual=80), angular (max=60, actual=27).
Neighbor info: radial (max=170, actual=79), angular (max=60, actual=27).
Neighbor info: radial (max=170, actual=80), angular (max=60, actual=28).
Neighbor info: radial (max=170, actual=78), angular (max=60, actual=27).
Neighbor info: radial (max=170, actual=78), angular (max=60, actual=27).
Neighbor info: radial (max=170, actual=76), angular (max=60, actual=27).
Neighbor info: radial (max=170, actual=79), angular (max=60, actual=29).
Neighbor info: radial (max=170, actual=79), angular (max=60, actual=27).
Neighbor info: radial (max=170, actual=77), angular (max=60, actual=27).
Neighbor info: radial (max=170, actual=81), angular (max=60, actual=27).
Neighbor info: radial (max=170, actual=81), angular (max=60, actual=27).
Neighbor info: radial (max=170, actual=80), angular (max=60, actual=27).
Neighbor info: radial (max=170, actual=78), angular (max=60, actual=27).
Neighbor info: radial (max=170, actual=78), angular (max=60, actual=27).
Neighbor info: radial (max=170, actual=79), angular (max=60, actual=27).
Neighbor info: radial (max=170, actual=77), angular (max=60, actual=26).
Neighbor info: radial (max=170, actual=77), angular (max=60, actual=27).
Neighbor info: radial (max=170, actual=80), angular (max=60, actual=27).
Neighbor info: radial (max=170, actual=78), angular (max=60, actual=27).
Neighbor info: radial (max=170, actual=80), angular (max=60, actual=27).
Neighbor info: radial (max=170, actual=79), angular (max=60, actual=28).
Neighbor info: radial (max=170, actual=81), angular (max=60, actual=27).
Neighbor info: radial (max=170, actual=79), angular (max=60, actual=27).
Neighbor info: radial (max=170, actual=79), angular (max=60, actual=28).
Neighbor info: radial (max=170, actual=77), angular (max=60, actual=26).
Neighbor info: radial (max=170, actual=79), angular (max=60, actual=27).
Neighbor info: radial (max=170, actual=79), angular (max=60, actual=27).
Neighbor info: radial (max=170, actual=78), angular (max=60, actual=27).
Neighbor info: radial (max=170, actual=79), angular (max=60, actual=28).
Neighbor info: radial (max=170, actual=78), angular (max=60, actual=27).
Neighbor info: radial (max=170, actual=78), angular (max=60, actual=28).
Neighbor info: radial (max=170, actual=79), angular (max=60, actual=27).
Neighbor info: radial (max=170, actual=81), angular (max=60, actual=27).
Neighbor info: radial (max=170, actual=81), angular (max=60, actual=27).
Neighbor info: radial (max=170, actual=77), angular (max=60, actual=26).
Neighbor info: radial (max=170, actual=81), angular (max=60, actual=27).
Neighbor info: radial (max=170, actual=79), angular (max=60, actual=28).
Neighbor info: radial (max=170, actual=80), angular (max=60, actual=28).
Neighbor info: radial (max=170, actual=80), angular (max=60, actual=28).
Neighbor info: radial (max=170, actual=80), angular (max=60, actual=28).
Neighbor info: radial (max=170, actual=80), angular (max=60, actual=27).
Neighbor info: radial (max=170, actual=79), angular (max=60, actual=28).
Neighbor info: radial (max=170, actual=78), angular (max=60, actual=27).
Neighbor info: radial (max=170, actual=78), angular (max=60, actual=27).
Neighbor info: radial (max=170, actual=79), angular (max=60, actual=27).
Neighbor info: radial (max=170, actual=77), angular (max=60, actual=28).
Neighbor info: radial (max=170, actual=78), angular (max=60, actual=26).
Neighbor info: radial (max=170, actual=77), angular (max=60, actual=27).
Neighbor info: radial (max=170, actual=78), angular (max=60, actual=27).
Neighbor info: radial (max=170, actual=79), angular (max=60, actual=27).
Neighbor info: radial (max=170, actual=79), angular (max=60, actual=27).
Neighbor info: radial (max=170, actual=79), angular (max=60, actual=27).
Neighbor info: radial (max=170, actual=78), angular (max=60, actual=28).
Neighbor info: radial (max=170, actual=80), angular (max=60, actual=26).
Neighbor info: radial (max=170, actual=77), angular (max=60, actual=27).
Neighbor info: radial (max=170, actual=80), angular (max=60, actual=27).
Neighbor info: radial (max=170, actual=78), angular (max=60, actual=28).
Neighbor info: radial (max=170, actual=79), angular (max=60, actual=27).
Neighbor info: radial (max=170, actual=79), angular (max=60, actual=27).
Neighbor info: radial (max=170, actual=80), angular (max=60, actual=26).
Neighbor info: radial (max=170, actual=77), angular (max=60, actual=27).
Neighbor info: radial (max=170, actual=79), angular (max=60, actual=26).
Neighbor info: radial (max=170, actual=80), angular (max=60, actual=27).
Neighbor info: radial (max=170, actual=80), angular (max=60, actual=27).
Neighbor info: radial (max=170, actual=79), angular (max=60, actual=28).
Neighbor info: radial (max=170, actual=79), angular (max=60, actual=26).
Neighbor info: radial (max=170, actual=79), angular (max=60, actual=26).
Neighbor info: radial (max=170, actual=77), angular (max=60, actual=27).
Neighbor info: radial (max=170, actual=77), angular (max=60, actual=27).
Neighbor info: radial (max=170, actual=78), angular (max=60, actual=27).
Neighbor info: radial (max=170, actual=80), angular (max=60, actual=27).
Neighbor info: radial (max=170, actual=79), angular (max=60, actual=27).
Neighbor info: radial (max=170, actual=79), angular (max=60, actual=27).
Neighbor info: radial (max=170, actual=78), angular (max=60, actual=27).
Neighbor info: radial (max=170, actual=80), angular (max=60, actual=27).
Neighbor info: radial (max=170, actual=80), angular (max=60, actual=28).
Neighbor info: radial (max=170, actual=79), angular (max=60, actual=27).
Neighbor info: radial (max=170, actual=80), angular (max=60, actual=27).
Neighbor info: radial (max=170, actual=79), angular (max=60, actual=27).
Neighbor info: radial (max=170, actual=79), angular (max=60, actual=27).
Neighbor info: radial (max=170, actual=78), angular (max=60, actual=27).
Neighbor info: radial (max=170, actual=78), angular (max=60, actual=27).
Neighbor info: radial (max=170, actual=80), angular (max=60, actual=27).
Neighbor info: radial (max=170, actual=79), angular (max=60, actual=27).
Neighbor info: radial (max=170, actual=79), angular (max=60, actual=27).
Neighbor info: radial (max=170, actual=79), angular (max=60, actual=28).
Neighbor info: radial (max=170, actual=80), angular (max=60, actual=26).
Neighbor info: radial (max=170, actual=79), angular (max=60, actual=27).
Neighbor info: radial (max=170, actual=79), angular (max=60, actual=28).
Neighbor info: radial (max=170, actual=79), angular (max=60, actual=26).
Neighbor info: radial (max=170, actual=79), angular (max=60, actual=27).
Neighbor info: radial (max=170, actual=78), angular (max=60, actual=28).
Neighbor info: radial (max=170, actual=77), angular (max=60, actual=28).
Neighbor info: radial (max=170, actual=80), angular (max=60, actual=28).
Neighbor info: radial (max=170, actual=79), angular (max=60, actual=27).
Neighbor info: radial (max=170, actual=80), angular (max=60, actual=28).
Neighbor info: radial (max=170, actual=78), angular (max=60, actual=26).
Neighbor info: radial (max=170, actual=79), angular (max=60, actual=27).
Neighbor info: radial (max=170, actual=82), angular (max=60, actual=27).
Neighbor info: radial (max=170, actual=78), angular (max=60, actual=27).
Neighbor info: radial (max=170, actual=78), angular (max=60, actual=27).
Neighbor info: radial (max=170, actual=78), angular (max=60, actual=28).
Neighbor info: radial (max=170, actual=80), angular (max=60, actual=27).
Neighbor info: radial (max=170, actual=80), angular (max=60, actual=28).
Neighbor info: radial (max=170, actual=79), angular (max=60, actual=28).
Neighbor info: radial (max=170, actual=78), angular (max=60, actual=27).
Neighbor info: radial (max=170, actual=79), angular (max=60, actual=28).
Neighbor info: radial (max=170, actual=79), angular (max=60, actual=26).
Neighbor info: radial (max=170, actual=80), angular (max=60, actual=28).
Neighbor info: radial (max=170, actual=79), angular (max=60, actual=27).
Neighbor info: radial (max=170, actual=78), angular (max=60, actual=27).
Neighbor info: radial (max=170, actual=81), angular (max=60, actual=28).
Neighbor info: radial (max=170, actual=78), angular (max=60, actual=27).
Neighbor info: radial (max=170, actual=80), angular (max=60, actual=28).
Neighbor info: radial (max=170, actual=78), angular (max=60, actual=27).
Neighbor info: radial (max=170, actual=78), angular (max=60, actual=28).
Neighbor info: radial (max=170, actual=81), angular (max=60, actual=26).
Neighbor info: radial (max=170, actual=80), angular (max=60, actual=27).
Neighbor info: radial (max=170, actual=79), angular (max=60, actual=27).
Neighbor info: radial (max=170, actual=79), angular (max=60, actual=27).
Neighbor info: radial (max=170, actual=79), angular (max=60, actual=28).
Neighbor info: radial (max=170, actual=77), angular (max=60, actual=28).
Neighbor info: radial (max=170, actual=80), angular (max=60, actual=27).
Neighbor info: radial (max=170, actual=79), angular (max=60, actual=26).
Neighbor info: radial (max=170, actual=78), angular (max=60, actual=27).
Neighbor info: radial (max=170, actual=80), angular (max=60, actual=27).
Neighbor info: radial (max=170, actual=78), angular (max=60, actual=28).
Neighbor info: radial (max=170, actual=80), angular (max=60, actual=29).
Neighbor info: radial (max=170, actual=78), angular (max=60, actual=27).
Neighbor info: radial (max=170, actual=80), angular (max=60, actual=27).
Neighbor info: radial (max=170, actual=79), angular (max=60, actual=27).
Neighbor info: radial (max=170, actual=80), angular (max=60, actual=28).
Neighbor info: radial (max=170, actual=78), angular (max=60, actual=27).
Neighbor info: radial (max=170, actual=78), angular (max=60, actual=26).
Neighbor info: radial (max=170, actual=79), angular (max=60, actual=26).
Neighbor info: radial (max=170, actual=80), angular (max=60, actual=27).
Neighbor info: radial (max=170, actual=79), angular (max=60, actual=27).
Neighbor info: radial (max=170, actual=79), angular (max=60, actual=26).
Neighbor info: radial (max=170, actual=78), angular (max=60, actual=28).
Neighbor info: radial (max=170, actual=77), angular (max=60, actual=27).
Neighbor info: radial (max=170, actual=78), angular (max=60, actual=27).
Neighbor info: radial (max=170, actual=81), angular (max=60, actual=27).
Neighbor info: radial (max=170, actual=79), angular (max=60, actual=27).
Neighbor info: radial (max=170, actual=80), angular (max=60, actual=28).
Neighbor info: radial (max=170, actual=80), angular (max=60, actual=27).
Neighbor info: radial (max=170, actual=78), angular (max=60, actual=27).
Neighbor info: radial (max=170, actual=78), angular (max=60, actual=27).
Neighbor info: radial (max=170, actual=79), angular (max=60, actual=27).
Neighbor info: radial (max=170, actual=78), angular (max=60, actual=27).
Neighbor info: radial (max=170, actual=78), angular (max=60, actual=27).
Neighbor info: radial (max=170, actual=80), angular (max=60, actual=27).
Neighbor info: radial (max=170, actual=78), angular (max=60, actual=27).
Neighbor info: radial (max=170, actual=80), angular (max=60, actual=27).
Neighbor info: radial (max=170, actual=80), angular (max=60, actual=27).
Neighbor info: radial (max=170, actual=80), angular (max=60, actual=28).
Neighbor info: radial (max=170, actual=78), angular (max=60, actual=27).
Neighbor info: radial (max=170, actual=78), angular (max=60, actual=27).
Neighbor info: radial (max=170, actual=78), angular (max=60, actual=27).
Neighbor info: radial (max=170, actual=78), angular (max=60, actual=28).
Neighbor info: radial (max=170, actual=78), angular (max=60, actual=28).
Neighbor info: radial (max=170, actual=79), angular (max=60, actual=27).
Neighbor info: radial (max=170, actual=77), angular (max=60, actual=28).
Neighbor info: radial (max=170, actual=79), angular (max=60, actual=27).
Neighbor info: radial (max=170, actual=79), angular (max=60, actual=27).
Neighbor info: radial (max=170, actual=77), angular (max=60, actual=27).
Neighbor info: radial (max=170, actual=79), angular (max=60, actual=27).
Neighbor info: radial (max=170, actual=78), angular (max=60, actual=27).
Neighbor info: radial (max=170, actual=80), angular (max=60, actual=27).
Neighbor info: radial (max=170, actual=80), angular (max=60, actual=27).
Neighbor info: radial (max=170, actual=78), angular (max=60, actual=29).
Neighbor info: radial (max=170, actual=79), angular (max=60, actual=28).
Neighbor info: radial (max=170, actual=78), angular (max=60, actual=27).
Neighbor info: radial (max=170, actual=77), angular (max=60, actual=28).
Neighbor info: radial (max=170, actual=78), angular (max=60, actual=27).
Neighbor info: radial (max=170, actual=80), angular (max=60, actual=27).
Neighbor info: radial (max=170, actual=77), angular (max=60, actual=28).
Neighbor info: radial (max=170, actual=79), angular (max=60, actual=27).
Neighbor info: radial (max=170, actual=79), angular (max=60, actual=27).
Neighbor info: radial (max=170, actual=80), angular (max=60, actual=27).
Neighbor info: radial (max=170, actual=79), angular (max=60, actual=27).
Neighbor info: radial (max=170, actual=79), angular (max=60, actual=27).
Neighbor info: radial (max=170, actual=80), angular (max=60, actual=26).
Neighbor info: radial (max=170, actual=79), angular (max=60, actual=27).
Neighbor info: radial (max=170, actual=79), angular (max=60, actual=27).
Neighbor info: radial (max=170, actual=78), angular (max=60, actual=28).
Neighbor info: radial (max=170, actual=80), angular (max=60, actual=27).
Neighbor info: radial (max=170, actual=80), angular (max=60, actual=28).
Neighbor info: radial (max=170, actual=80), angular (max=60, actual=27).
Neighbor info: radial (max=170, actual=79), angular (max=60, actual=26).
Neighbor info: radial (max=170, actual=79), angular (max=60, actual=28).
Neighbor info: radial (max=170, actual=80), angular (max=60, actual=27).
Neighbor info: radial (max=170, actual=79), angular (max=60, actual=27).
Neighbor info: radial (max=170, actual=80), angular (max=60, actual=27).
Neighbor info: radial (max=170, actual=80), angular (max=60, actual=27).
Neighbor info: radial (max=170, actual=78), angular (max=60, actual=27).
Neighbor info: radial (max=170, actual=77), angular (max=60, actual=28).
Neighbor info: radial (max=170, actual=76), angular (max=60, actual=27).
Neighbor info: radial (max=170, actual=79), angular (max=60, actual=27).
Neighbor info: radial (max=170, actual=78), angular (max=60, actual=26).
Neighbor info: radial (max=170, actual=77), angular (max=60, actual=26).
Neighbor info: radial (max=170, actual=80), angular (max=60, actual=28).
Neighbor info: radial (max=170, actual=79), angular (max=60, actual=27).
Neighbor info: radial (max=170, actual=78), angular (max=60, actual=27).
Neighbor info: radial (max=170, actual=78), angular (max=60, actual=26).
Neighbor info: radial (max=170, actual=79), angular (max=60, actual=28).
Neighbor info: radial (max=170, actual=80), angular (max=60, actual=27).
Neighbor info: radial (max=170, actual=80), angular (max=60, actual=27).
Neighbor info: radial (max=170, actual=77), angular (max=60, actual=28).
Neighbor info: radial (max=170, actual=79), angular (max=60, actual=27).
Neighbor info: radial (max=170, actual=78), angular (max=60, actual=27).
Neighbor info: radial (max=170, actual=78), angular (max=60, actual=27).
Neighbor info: radial (max=170, actual=80), angular (max=60, actual=27).
Neighbor info: radial (max=170, actual=80), angular (max=60, actual=26).
Neighbor info: radial (max=170, actual=78), angular (max=60, actual=27).
    400000 steps completed.
Neighbor info: radial (max=170, actual=79), angular (max=60, actual=27).
Neighbor info: radial (max=170, actual=76), angular (max=60, actual=27).
Neighbor info: radial (max=170, actual=80), angular (max=60, actual=27).
Neighbor info: radial (max=170, actual=79), angular (max=60, actual=27).
Neighbor info: radial (max=170, actual=78), angular (max=60, actual=28).
Neighbor info: radial (max=170, actual=76), angular (max=60, actual=27).
Neighbor info: radial (max=170, actual=78), angular (max=60, actual=28).
Neighbor info: radial (max=170, actual=78), angular (max=60, actual=27).
Neighbor info: radial (max=170, actual=78), angular (max=60, actual=28).
Neighbor info: radial (max=170, actual=79), angular (max=60, actual=27).
Neighbor info: radial (max=170, actual=79), angular (max=60, actual=28).
Neighbor info: radial (max=170, actual=79), angular (max=60, actual=27).
Neighbor info: radial (max=170, actual=79), angular (max=60, actual=28).
Neighbor info: radial (max=170, actual=80), angular (max=60, actual=27).
Neighbor info: radial (max=170, actual=81), angular (max=60, actual=26).
Neighbor info: radial (max=170, actual=79), angular (max=60, actual=27).
Neighbor info: radial (max=170, actual=77), angular (max=60, actual=26).
Neighbor info: radial (max=170, actual=79), angular (max=60, actual=27).
Neighbor info: radial (max=170, actual=79), angular (max=60, actual=27).
Neighbor info: radial (max=170, actual=78), angular (max=60, actual=27).
Neighbor info: radial (max=170, actual=81), angular (max=60, actual=27).
Neighbor info: radial (max=170, actual=79), angular (max=60, actual=28).
Neighbor info: radial (max=170, actual=78), angular (max=60, actual=26).
Neighbor info: radial (max=170, actual=79), angular (max=60, actual=28).
Neighbor info: radial (max=170, actual=80), angular (max=60, actual=27).
Neighbor info: radial (max=170, actual=77), angular (max=60, actual=26).
Neighbor info: radial (max=170, actual=82), angular (max=60, actual=27).
Neighbor info: radial (max=170, actual=78), angular (max=60, actual=27).
Neighbor info: radial (max=170, actual=77), angular (max=60, actual=27).
Neighbor info: radial (max=170, actual=78), angular (max=60, actual=27).
Neighbor info: radial (max=170, actual=79), angular (max=60, actual=27).
Neighbor info: radial (max=170, actual=80), angular (max=60, actual=27).
Neighbor info: radial (max=170, actual=80), angular (max=60, actual=27).
Neighbor info: radial (max=170, actual=77), angular (max=60, actual=28).
Neighbor info: radial (max=170, actual=79), angular (max=60, actual=28).
Neighbor info: radial (max=170, actual=78), angular (max=60, actual=28).
Neighbor info: radial (max=170, actual=79), angular (max=60, actual=27).
Neighbor info: radial (max=170, actual=79), angular (max=60, actual=27).
Neighbor info: radial (max=170, actual=78), angular (max=60, actual=27).
Neighbor info: radial (max=170, actual=78), angular (max=60, actual=26).
Neighbor info: radial (max=170, actual=80), angular (max=60, actual=27).
Neighbor info: radial (max=170, actual=78), angular (max=60, actual=28).
Neighbor info: radial (max=170, actual=78), angular (max=60, actual=27).
Neighbor info: radial (max=170, actual=80), angular (max=60, actual=27).
Neighbor info: radial (max=170, actual=81), angular (max=60, actual=28).
Neighbor info: radial (max=170, actual=78), angular (max=60, actual=27).
Neighbor info: radial (max=170, actual=80), angular (max=60, actual=27).
Neighbor info: radial (max=170, actual=77), angular (max=60, actual=27).
Neighbor info: radial (max=170, actual=79), angular (max=60, actual=27).
Neighbor info: radial (max=170, actual=78), angular (max=60, actual=27).
Neighbor info: radial (max=170, actual=79), angular (max=60, actual=28).
Neighbor info: radial (max=170, actual=79), angular (max=60, actual=27).
Neighbor info: radial (max=170, actual=80), angular (max=60, actual=27).
Neighbor info: radial (max=170, actual=78), angular (max=60, actual=28).
Neighbor info: radial (max=170, actual=79), angular (max=60, actual=27).
Neighbor info: radial (max=170, actual=79), angular (max=60, actual=27).
Neighbor info: radial (max=170, actual=79), angular (max=60, actual=28).
Neighbor info: radial (max=170, actual=79), angular (max=60, actual=26).
Neighbor info: radial (max=170, actual=79), angular (max=60, actual=26).
Neighbor info: radial (max=170, actual=81), angular (max=60, actual=27).
Neighbor info: radial (max=170, actual=80), angular (max=60, actual=29).
Neighbor info: radial (max=170, actual=81), angular (max=60, actual=27).
Neighbor info: radial (max=170, actual=78), angular (max=60, actual=27).
Neighbor info: radial (max=170, actual=78), angular (max=60, actual=28).
Neighbor info: radial (max=170, actual=81), angular (max=60, actual=27).
Neighbor info: radial (max=170, actual=79), angular (max=60, actual=28).
Neighbor info: radial (max=170, actual=78), angular (max=60, actual=27).
Neighbor info: radial (max=170, actual=79), angular (max=60, actual=27).
Neighbor info: radial (max=170, actual=80), angular (max=60, actual=28).
Neighbor info: radial (max=170, actual=78), angular (max=60, actual=28).
Neighbor info: radial (max=170, actual=77), angular (max=60, actual=27).
Neighbor info: radial (max=170, actual=77), angular (max=60, actual=28).
Neighbor info: radial (max=170, actual=78), angular (max=60, actual=26).
Neighbor info: radial (max=170, actual=79), angular (max=60, actual=27).
Neighbor info: radial (max=170, actual=78), angular (max=60, actual=28).
Neighbor info: radial (max=170, actual=79), angular (max=60, actual=27).
Neighbor info: radial (max=170, actual=78), angular (max=60, actual=26).
Neighbor info: radial (max=170, actual=78), angular (max=60, actual=27).
Neighbor info: radial (max=170, actual=79), angular (max=60, actual=27).
Neighbor info: radial (max=170, actual=78), angular (max=60, actual=28).
Neighbor info: radial (max=170, actual=77), angular (max=60, actual=27).
Neighbor info: radial (max=170, actual=79), angular (max=60, actual=28).
Neighbor info: radial (max=170, actual=79), angular (max=60, actual=28).
Neighbor info: radial (max=170, actual=78), angular (max=60, actual=27).
Neighbor info: radial (max=170, actual=78), angular (max=60, actual=27).
Neighbor info: radial (max=170, actual=80), angular (max=60, actual=27).
Neighbor info: radial (max=170, actual=80), angular (max=60, actual=27).
Neighbor info: radial (max=170, actual=80), angular (max=60, actual=28).
Neighbor info: radial (max=170, actual=78), angular (max=60, actual=28).
Neighbor info: radial (max=170, actual=79), angular (max=60, actual=27).
Neighbor info: radial (max=170, actual=78), angular (max=60, actual=28).
Neighbor info: radial (max=170, actual=78), angular (max=60, actual=27).
Neighbor info: radial (max=170, actual=79), angular (max=60, actual=27).
Neighbor info: radial (max=170, actual=79), angular (max=60, actual=27).
Neighbor info: radial (max=170, actual=79), angular (max=60, actual=28).
Neighbor info: radial (max=170, actual=80), angular (max=60, actual=27).
Neighbor info: radial (max=170, actual=80), angular (max=60, actual=28).
Neighbor info: radial (max=170, actual=79), angular (max=60, actual=27).
Neighbor info: radial (max=170, actual=77), angular (max=60, actual=27).
Neighbor info: radial (max=170, actual=80), angular (max=60, actual=27).
Neighbor info: radial (max=170, actual=78), angular (max=60, actual=28).
Neighbor info: radial (max=170, actual=79), angular (max=60, actual=28).
Neighbor info: radial (max=170, actual=79), angular (max=60, actual=27).
Neighbor info: radial (max=170, actual=78), angular (max=60, actual=27).
Neighbor info: radial (max=170, actual=79), angular (max=60, actual=27).
Neighbor info: radial (max=170, actual=79), angular (max=60, actual=27).
Neighbor info: radial (max=170, actual=79), angular (max=60, actual=27).
Neighbor info: radial (max=170, actual=77), angular (max=60, actual=28).
Neighbor info: radial (max=170, actual=82), angular (max=60, actual=27).
Neighbor info: radial (max=170, actual=80), angular (max=60, actual=27).
Neighbor info: radial (max=170, actual=79), angular (max=60, actual=27).
Neighbor info: radial (max=170, actual=81), angular (max=60, actual=28).
Neighbor info: radial (max=170, actual=79), angular (max=60, actual=28).
Neighbor info: radial (max=170, actual=79), angular (max=60, actual=27).
Neighbor info: radial (max=170, actual=78), angular (max=60, actual=28).
Neighbor info: radial (max=170, actual=76), angular (max=60, actual=27).
Neighbor info: radial (max=170, actual=78), angular (max=60, actual=27).
Neighbor info: radial (max=170, actual=78), angular (max=60, actual=27).
Neighbor info: radial (max=170, actual=79), angular (max=60, actual=26).
Neighbor info: radial (max=170, actual=78), angular (max=60, actual=28).
Neighbor info: radial (max=170, actual=78), angular (max=60, actual=27).
Neighbor info: radial (max=170, actual=80), angular (max=60, actual=28).
Neighbor info: radial (max=170, actual=80), angular (max=60, actual=28).
Neighbor info: radial (max=170, actual=81), angular (max=60, actual=27).
Neighbor info: radial (max=170, actual=77), angular (max=60, actual=27).
Neighbor info: radial (max=170, actual=81), angular (max=60, actual=28).
Neighbor info: radial (max=170, actual=79), angular (max=60, actual=28).
Neighbor info: radial (max=170, actual=78), angular (max=60, actual=27).
Neighbor info: radial (max=170, actual=79), angular (max=60, actual=28).
Neighbor info: radial (max=170, actual=78), angular (max=60, actual=26).
Neighbor info: radial (max=170, actual=79), angular (max=60, actual=27).
Neighbor info: radial (max=170, actual=81), angular (max=60, actual=27).
Neighbor info: radial (max=170, actual=78), angular (max=60, actual=27).
Neighbor info: radial (max=170, actual=77), angular (max=60, actual=27).
Neighbor info: radial (max=170, actual=79), angular (max=60, actual=27).
Neighbor info: radial (max=170, actual=79), angular (max=60, actual=27).
Neighbor info: radial (max=170, actual=77), angular (max=60, actual=26).
Neighbor info: radial (max=170, actual=79), angular (max=60, actual=27).
Neighbor info: radial (max=170, actual=79), angular (max=60, actual=28).
Neighbor info: radial (max=170, actual=78), angular (max=60, actual=26).
Neighbor info: radial (max=170, actual=79), angular (max=60, actual=27).
Neighbor info: radial (max=170, actual=78), angular (max=60, actual=28).
Neighbor info: radial (max=170, actual=78), angular (max=60, actual=27).
Neighbor info: radial (max=170, actual=81), angular (max=60, actual=28).
Neighbor info: radial (max=170, actual=79), angular (max=60, actual=27).
Neighbor info: radial (max=170, actual=79), angular (max=60, actual=27).
Neighbor info: radial (max=170, actual=79), angular (max=60, actual=27).
Neighbor info: radial (max=170, actual=80), angular (max=60, actual=27).
Neighbor info: radial (max=170, actual=78), angular (max=60, actual=28).
Neighbor info: radial (max=170, actual=79), angular (max=60, actual=26).
Neighbor info: radial (max=170, actual=79), angular (max=60, actual=27).
Neighbor info: radial (max=170, actual=78), angular (max=60, actual=28).
Neighbor info: radial (max=170, actual=80), angular (max=60, actual=28).
Neighbor info: radial (max=170, actual=78), angular (max=60, actual=28).
Neighbor info: radial (max=170, actual=78), angular (max=60, actual=27).
Neighbor info: radial (max=170, actual=78), angular (max=60, actual=28).
Neighbor info: radial (max=170, actual=79), angular (max=60, actual=28).
Neighbor info: radial (max=170, actual=79), angular (max=60, actual=27).
Neighbor info: radial (max=170, actual=78), angular (max=60, actual=27).
Neighbor info: radial (max=170, actual=80), angular (max=60, actual=28).
Neighbor info: radial (max=170, actual=77), angular (max=60, actual=28).
Neighbor info: radial (max=170, actual=78), angular (max=60, actual=27).
Neighbor info: radial (max=170, actual=78), angular (max=60, actual=27).
Neighbor info: radial (max=170, actual=80), angular (max=60, actual=27).
Neighbor info: radial (max=170, actual=78), angular (max=60, actual=27).
Neighbor info: radial (max=170, actual=81), angular (max=60, actual=27).
Neighbor info: radial (max=170, actual=80), angular (max=60, actual=27).
Neighbor info: radial (max=170, actual=78), angular (max=60, actual=27).
Neighbor info: radial (max=170, actual=78), angular (max=60, actual=27).
Neighbor info: radial (max=170, actual=80), angular (max=60, actual=28).
Neighbor info: radial (max=170, actual=79), angular (max=60, actual=26).
Neighbor info: radial (max=170, actual=78), angular (max=60, actual=26).
Neighbor info: radial (max=170, actual=80), angular (max=60, actual=27).
Neighbor info: radial (max=170, actual=79), angular (max=60, actual=27).
Neighbor info: radial (max=170, actual=79), angular (max=60, actual=27).
Neighbor info: radial (max=170, actual=79), angular (max=60, actual=27).
Neighbor info: radial (max=170, actual=81), angular (max=60, actual=27).
Neighbor info: radial (max=170, actual=81), angular (max=60, actual=28).
Neighbor info: radial (max=170, actual=79), angular (max=60, actual=28).
Neighbor info: radial (max=170, actual=80), angular (max=60, actual=27).
Neighbor info: radial (max=170, actual=80), angular (max=60, actual=27).
Neighbor info: radial (max=170, actual=78), angular (max=60, actual=26).
Neighbor info: radial (max=170, actual=80), angular (max=60, actual=27).
Neighbor info: radial (max=170, actual=78), angular (max=60, actual=27).
Neighbor info: radial (max=170, actual=78), angular (max=60, actual=28).
Neighbor info: radial (max=170, actual=78), angular (max=60, actual=27).
Neighbor info: radial (max=170, actual=79), angular (max=60, actual=28).
Neighbor info: radial (max=170, actual=79), angular (max=60, actual=28).
Neighbor info: radial (max=170, actual=79), angular (max=60, actual=26).
Neighbor info: radial (max=170, actual=78), angular (max=60, actual=27).
Neighbor info: radial (max=170, actual=80), angular (max=60, actual=27).
Neighbor info: radial (max=170, actual=78), angular (max=60, actual=27).
Neighbor info: radial (max=170, actual=80), angular (max=60, actual=28).
Neighbor info: radial (max=170, actual=79), angular (max=60, actual=27).
Neighbor info: radial (max=170, actual=78), angular (max=60, actual=27).
Neighbor info: radial (max=170, actual=80), angular (max=60, actual=26).
Neighbor info: radial (max=170, actual=79), angular (max=60, actual=27).
Neighbor info: radial (max=170, actual=78), angular (max=60, actual=28).
Neighbor info: radial (max=170, actual=77), angular (max=60, actual=27).
Neighbor info: radial (max=170, actual=78), angular (max=60, actual=26).
Neighbor info: radial (max=170, actual=78), angular (max=60, actual=26).
Neighbor info: radial (max=170, actual=79), angular (max=60, actual=28).
Neighbor info: radial (max=170, actual=81), angular (max=60, actual=27).
Neighbor info: radial (max=170, actual=77), angular (max=60, actual=27).
Neighbor info: radial (max=170, actual=78), angular (max=60, actual=27).
Neighbor info: radial (max=170, actual=80), angular (max=60, actual=27).
Neighbor info: radial (max=170, actual=77), angular (max=60, actual=27).
Neighbor info: radial (max=170, actual=78), angular (max=60, actual=27).
Neighbor info: radial (max=170, actual=79), angular (max=60, actual=27).
Neighbor info: radial (max=170, actual=78), angular (max=60, actual=26).
Neighbor info: radial (max=170, actual=80), angular (max=60, actual=28).
Neighbor info: radial (max=170, actual=79), angular (max=60, actual=27).
Neighbor info: radial (max=170, actual=80), angular (max=60, actual=26).
Neighbor info: radial (max=170, actual=78), angular (max=60, actual=27).
Neighbor info: radial (max=170, actual=77), angular (max=60, actual=27).
Neighbor info: radial (max=170, actual=79), angular (max=60, actual=27).
Neighbor info: radial (max=170, actual=78), angular (max=60, actual=28).
Neighbor info: radial (max=170, actual=77), angular (max=60, actual=27).
Neighbor info: radial (max=170, actual=80), angular (max=60, actual=27).
Neighbor info: radial (max=170, actual=79), angular (max=60, actual=27).
Neighbor info: radial (max=170, actual=80), angular (max=60, actual=28).
Neighbor info: radial (max=170, actual=78), angular (max=60, actual=28).
Neighbor info: radial (max=170, actual=78), angular (max=60, actual=26).
Neighbor info: radial (max=170, actual=79), angular (max=60, actual=27).
Neighbor info: radial (max=170, actual=78), angular (max=60, actual=27).
Neighbor info: radial (max=170, actual=76), angular (max=60, actual=28).
Neighbor info: radial (max=170, actual=78), angular (max=60, actual=27).
Neighbor info: radial (max=170, actual=79), angular (max=60, actual=28).
Neighbor info: radial (max=170, actual=79), angular (max=60, actual=27).
Neighbor info: radial (max=170, actual=78), angular (max=60, actual=28).
Neighbor info: radial (max=170, actual=79), angular (max=60, actual=27).
Neighbor info: radial (max=170, actual=79), angular (max=60, actual=27).
Neighbor info: radial (max=170, actual=79), angular (max=60, actual=26).
Neighbor info: radial (max=170, actual=79), angular (max=60, actual=27).
Neighbor info: radial (max=170, actual=80), angular (max=60, actual=28).
Neighbor info: radial (max=170, actual=79), angular (max=60, actual=27).
Neighbor info: radial (max=170, actual=76), angular (max=60, actual=28).
Neighbor info: radial (max=170, actual=78), angular (max=60, actual=28).
Neighbor info: radial (max=170, actual=80), angular (max=60, actual=27).
[...]
Neighbor info: radial (max=170, actual=79), angular (max=60, actual=26).
Neighbor info: radial (max=170, actual=78), angular (max=60, actual=28).
Neighbor info: radial (max=170, actual=79), angular (max=60, actual=27).
Neighbor info: radial (max=170, actual=80), angular (max=60, actual=27).
Neighbor info: radial (max=170, actual=78), angular (max=60, actual=26).
Neighbor info: radial (max=170, actual=77), angular (max=60, actual=28).
Neighbor info: radial (max=170, actual=78), angular (max=60, actual=27).
Neighbor info: radial (max=170, actual=80), angular (max=60, actual=27).
Neighbor info: radial (max=170, actual=80), angular (max=60, actual=28).
Neighbor info: radial (max=170, actual=79), angular (max=60, actual=27).
Neighbor info: radial (max=170, actual=78), angular (max=60, actual=27).
Neighbor info: radial (max=170, actual=78), angular (max=60, actual=27).
Neighbor info: radial (max=170, actual=80), angular (max=60, actual=27).
Neighbor info: radial (max=170, actual=77), angular (max=60, actual=27).
Neighbor info: radial (max=170, actual=80), angular (max=60, actual=26).
Neighbor info: radial (max=170, actual=78), angular (max=60, actual=28).
Neighbor info: radial (max=170, actual=78), angular (max=60, actual=28).
Neighbor info: radial (max=170, actual=80), angular (max=60, actual=27).
Neighbor info: radial (max=170, actual=78), angular (max=60, actual=28).
Neighbor info: radial (max=170, actual=79), angular (max=60, actual=28).
Neighbor info: radial (max=170, actual=77), angular (max=60, actual=27).
Neighbor info: radial (max=170, actual=79), angular (max=60, actual=28).
Neighbor info: radial (max=170, actual=79), angular (max=60, actual=26).
Neighbor info: radial (max=170, actual=78), angular (max=60, actual=27).
Neighbor info: radial (max=170, actual=79), angular (max=60, actual=26).
Neighbor info: radial (max=170, actual=80), angular (max=60, actual=27).
Neighbor info: radial (max=170, actual=78), angular (max=60, actual=28).
Neighbor info: radial (max=170, actual=79), angular (max=60, actual=28).
Neighbor info: radial (max=170, actual=80), angular (max=60, actual=27).
Neighbor info: radial (max=170, actual=79), angular (max=60, actual=27).
Neighbor info: radial (max=170, actual=79), angular (max=60, actual=27).
Neighbor info: radial (max=170, actual=80), angular (max=60, actual=27).
Neighbor info: radial (max=170, actual=80), angular (max=60, actual=27).
Neighbor info: radial (max=170, actual=79), angular (max=60, actual=27).
Neighbor info: radial (max=170, actual=80), angular (max=60, actual=29).
Neighbor info: radial (max=170, actual=78), angular (max=60, actual=28).
Neighbor info: radial (max=170, actual=78), angular (max=60, actual=27).
Neighbor info: radial (max=170, actual=79), angular (max=60, actual=27).
Neighbor info: radial (max=170, actual=79), angular (max=60, actual=27).
Neighbor info: radial (max=170, actual=80), angular (max=60, actual=26).
Neighbor info: radial (max=170, actual=82), angular (max=60, actual=27).
Neighbor info: radial (max=170, actual=78), angular (max=60, actual=27).
Neighbor info: radial (max=170, actual=78), angular (max=60, actual=26).
Neighbor info: radial (max=170, actual=78), angular (max=60, actual=26).
Neighbor info: radial (max=170, actual=78), angular (max=60, actual=28).
Neighbor info: radial (max=170, actual=78), angular (max=60, actual=26).
Neighbor info: radial (max=170, actual=78), angular (max=60, actual=26).
Neighbor info: radial (max=170, actual=78), angular (max=60, actual=27).
Neighbor info: radial (max=170, actual=80), angular (max=60, actual=27).
Neighbor info: radial (max=170, actual=79), angular (max=60, actual=27).
Neighbor info: radial (max=170, actual=78), angular (max=60, actual=27).
Neighbor info: radial (max=170, actual=78), angular (max=60, actual=26).
Neighbor info: radial (max=170, actual=79), angular (max=60, actual=27).
Neighbor info: radial (max=170, actual=81), angular (max=60, actual=27).
Neighbor info: radial (max=170, actual=80), angular (max=60, actual=27).
Neighbor info: radial (max=170, actual=80), angular (max=60, actual=29).
Neighbor info: radial (max=170, actual=78), angular (max=60, actual=28).
Neighbor info: radial (max=170, actual=78), angular (max=60, actual=27).
Neighbor info: radial (max=170, actual=78), angular (max=60, actual=27).
Neighbor info: radial (max=170, actual=78), angular (max=60, actual=27).
Neighbor info: radial (max=170, actual=79), angular (max=60, actual=27).
Neighbor info: radial (max=170, actual=81), angular (max=60, actual=27).
Neighbor info: radial (max=170, actual=79), angular (max=60, actual=28).
Neighbor info: radial (max=170, actual=80), angular (max=60, actual=28).
Neighbor info: radial (max=170, actual=78), angular (max=60, actual=28).
Neighbor info: radial (max=170, actual=80), angular (max=60, actual=27).
Neighbor info: radial (max=170, actual=77), angular (max=60, actual=27).
Neighbor info: radial (max=170, actual=80), angular (max=60, actual=27).
Neighbor info: radial (max=170, actual=78), angular (max=60, actual=27).
Neighbor info: radial (max=170, actual=79), angular (max=60, actual=27).
Neighbor info: radial (max=170, actual=80), angular (max=60, actual=27).
Neighbor info: radial (max=170, actual=79), angular (max=60, actual=27).
Neighbor info: radial (max=170, actual=78), angular (max=60, actual=26).
Neighbor info: radial (max=170, actual=78), angular (max=60, actual=27).
Neighbor info: radial (max=170, actual=78), angular (max=60, actual=27).
Neighbor info: radial (max=170, actual=78), angular (max=60, actual=27).
Neighbor info: radial (max=170, actual=78), angular (max=60, actual=27).
Neighbor info: radial (max=170, actual=78), angular (max=60, actual=28).
Neighbor info: radial (max=170, actual=81), angular (max=60, actual=27).
Neighbor info: radial (max=170, actual=80), angular (max=60, actual=27).
Neighbor info: radial (max=170, actual=78), angular (max=60, actual=28).
Neighbor info: radial (max=170, actual=79), angular (max=60, actual=26).
Neighbor info: radial (max=170, actual=78), angular (max=60, actual=27).
Neighbor info: radial (max=170, actual=79), angular (max=60, actual=26).
Neighbor info: radial (max=170, actual=78), angular (max=60, actual=27).
Neighbor info: radial (max=170, actual=82), angular (max=60, actual=27).
Neighbor info: radial (max=170, actual=79), angular (max=60, actual=28).
Neighbor info: radial (max=170, actual=79), angular (max=60, actual=27).
Neighbor info: radial (max=170, actual=80), angular (max=60, actual=28).
Neighbor info: radial (max=170, actual=80), angular (max=60, actual=28).
Neighbor info: radial (max=170, actual=78), angular (max=60, actual=27).
Neighbor info: radial (max=170, actual=80), angular (max=60, actual=28).
Neighbor info: radial (max=170, actual=80), angular (max=60, actual=27).
Neighbor info: radial (max=170, actual=79), angular (max=60, actual=27).
Neighbor info: radial (max=170, actual=78), angular (max=60, actual=27).
Neighbor info: radial (max=170, actual=79), angular (max=60, actual=26).
Neighbor info: radial (max=170, actual=79), angular (max=60, actual=28).
Neighbor info: radial (max=170, actual=78), angular (max=60, actual=26).
Neighbor info: radial (max=170, actual=79), angular (max=60, actual=27).
Neighbor info: radial (max=170, actual=78), angular (max=60, actual=27).
Neighbor info: radial (max=170, actual=80), angular (max=60, actual=26).
Neighbor info: radial (max=170, actual=78), angular (max=60, actual=27).
Neighbor info: radial (max=170, actual=79), angular (max=60, actual=27).
Neighbor info: radial (max=170, actual=78), angular (max=60, actual=27).
Neighbor info: radial (max=170, actual=78), angular (max=60, actual=28).
Neighbor info: radial (max=170, actual=79), angular (max=60, actual=27).
Neighbor info: radial (max=170, actual=80), angular (max=60, actual=27).
Neighbor info: radial (max=170, actual=79), angular (max=60, actual=28).
Neighbor info: radial (max=170, actual=79), angular (max=60, actual=27).
Neighbor info: radial (max=170, actual=78), angular (max=60, actual=28).
Neighbor info: radial (max=170, actual=79), angular (max=60, actual=27).
Neighbor info: radial (max=170, actual=79), angular (max=60, actual=27).
Neighbor info: radial (max=170, actual=78), angular (max=60, actual=28).
Neighbor info: radial (max=170, actual=81), angular (max=60, actual=27).
Neighbor info: radial (max=170, actual=78), angular (max=60, actual=27).
Neighbor info: radial (max=170, actual=79), angular (max=60, actual=27).
Neighbor info: radial (max=170, actual=80), angular (max=60, actual=27).
Neighbor info: radial (max=170, actual=80), angular (max=60, actual=27).
Neighbor info: radial (max=170, actual=79), angular (max=60, actual=27).
Neighbor info: radial (max=170, actual=78), angular (max=60, actual=28).
Neighbor info: radial (max=170, actual=79), angular (max=60, actual=26).
Neighbor info: radial (max=170, actual=78), angular (max=60, actual=26).
Neighbor info: radial (max=170, actual=81), angular (max=60, actual=27).
Neighbor info: radial (max=170, actual=82), angular (max=60, actual=26).
Neighbor info: radial (max=170, actual=80), angular (max=60, actual=27).
Neighbor info: radial (max=170, actual=80), angular (max=60, actual=27).
Neighbor info: radial (max=170, actual=79), angular (max=60, actual=26).
Neighbor info: radial (max=170, actual=80), angular (max=60, actual=27).
Neighbor info: radial (max=170, actual=79), angular (max=60, actual=27).
Neighbor info: radial (max=170, actual=77), angular (max=60, actual=27).
Neighbor info: radial (max=170, actual=80), angular (max=60, actual=27).
Neighbor info: radial (max=170, actual=79), angular (max=60, actual=27).
Neighbor info: radial (max=170, actual=78), angular (max=60, actual=26).
Neighbor info: radial (max=170, actual=77), angular (max=60, actual=27).
Neighbor info: radial (max=170, actual=77), angular (max=60, actual=27).
Neighbor info: radial (max=170, actual=77), angular (max=60, actual=27).
Neighbor info: radial (max=170, actual=79), angular (max=60, actual=27).
Neighbor info: radial (max=170, actual=79), angular (max=60, actual=27).
Neighbor info: radial (max=170, actual=78), angular (max=60, actual=27).
Neighbor info: radial (max=170, actual=78), angular (max=60, actual=26).
Neighbor info: radial (max=170, actual=80), angular (max=60, actual=26).
Neighbor info: radial (max=170, actual=82), angular (max=60, actual=28).
Neighbor info: radial (max=170, actual=78), angular (max=60, actual=27).
Neighbor info: radial (max=170, actual=80), angular (max=60, actual=27).
Neighbor info: radial (max=170, actual=78), angular (max=60, actual=29).
Neighbor info: radial (max=170, actual=78), angular (max=60, actual=27).
Neighbor info: radial (max=170, actual=78), angular (max=60, actual=27).
Neighbor info: radial (max=170, actual=80), angular (max=60, actual=28).
Neighbor info: radial (max=170, actual=79), angular (max=60, actual=26).
Neighbor info: radial (max=170, actual=77), angular (max=60, actual=27).
Neighbor info: radial (max=170, actual=80), angular (max=60, actual=27).
Neighbor info: radial (max=170, actual=78), angular (max=60, actual=29).
Neighbor info: radial (max=170, actual=79), angular (max=60, actual=27).
Neighbor info: radial (max=170, actual=78), angular (max=60, actual=27).
Neighbor info: radial (max=170, actual=77), angular (max=60, actual=28).
Neighbor info: radial (max=170, actual=78), angular (max=60, actual=26).
Neighbor info: radial (max=170, actual=81), angular (max=60, actual=27).
Neighbor info: radial (max=170, actual=79), angular (max=60, actual=26).
Neighbor info: radial (max=170, actual=79), angular (max=60, actual=27).
Neighbor info: radial (max=170, actual=79), angular (max=60, actual=27).
Neighbor info: radial (max=170, actual=79), angular (max=60, actual=28).
Neighbor info: radial (max=170, actual=80), angular (max=60, actual=27).
Neighbor info: radial (max=170, actual=79), angular (max=60, actual=27).
Neighbor info: radial (max=170, actual=82), angular (max=60, actual=27).
Neighbor info: radial (max=170, actual=79), angular (max=60, actual=28).
Neighbor info: radial (max=170, actual=80), angular (max=60, actual=27).
Neighbor info: radial (max=170, actual=78), angular (max=60, actual=27).
Neighbor info: radial (max=170, actual=78), angular (max=60, actual=28).
Neighbor info: radial (max=170, actual=79), angular (max=60, actual=27).
Neighbor info: radial (max=170, actual=81), angular (max=60, actual=27).
Neighbor info: radial (max=170, actual=80), angular (max=60, actual=27).
Neighbor info: radial (max=170, actual=78), angular (max=60, actual=27).
Neighbor info: radial (max=170, actual=79), angular (max=60, actual=27).
Neighbor info: radial (max=170, actual=80), angular (max=60, actual=28).
Neighbor info: radial (max=170, actual=78), angular (max=60, actual=27).
Neighbor info: radial (max=170, actual=78), angular (max=60, actual=27).
Neighbor info: radial (max=170, actual=80), angular (max=60, actual=27).
Neighbor info: radial (max=170, actual=79), angular (max=60, actual=27).
Neighbor info: radial (max=170, actual=79), angular (max=60, actual=26).
Neighbor info: radial (max=170, actual=81), angular (max=60, actual=27).
Neighbor info: radial (max=170, actual=80), angular (max=60, actual=26).
Neighbor info: radial (max=170, actual=79), angular (max=60, actual=27).
Neighbor info: radial (max=170, actual=80), angular (max=60, actual=27).
Neighbor info: radial (max=170, actual=80), angular (max=60, actual=27).
Neighbor info: radial (max=170, actual=79), angular (max=60, actual=27).
Neighbor info: radial (max=170, actual=80), angular (max=60, actual=27).
Neighbor info: radial (max=170, actual=79), angular (max=60, actual=27).
Neighbor info: radial (max=170, actual=79), angular (max=60, actual=28).
Neighbor info: radial (max=170, actual=78), angular (max=60, actual=28).
Neighbor info: radial (max=170, actual=80), angular (max=60, actual=28).
Neighbor info: radial (max=170, actual=78), angular (max=60, actual=27).
Neighbor info: radial (max=170, actual=81), angular (max=60, actual=27).
Neighbor info: radial (max=170, actual=78), angular (max=60, actual=26).
Neighbor info: radial (max=170, actual=81), angular (max=60, actual=26).
Neighbor info: radial (max=170, actual=78), angular (max=60, actual=27).
Neighbor info: radial (max=170, actual=81), angular (max=60, actual=28).
Neighbor info: radial (max=170, actual=78), angular (max=60, actual=28).
Neighbor info: radial (max=170, actual=79), angular (max=60, actual=27).
Neighbor info: radial (max=170, actual=78), angular (max=60, actual=27).
Neighbor info: radial (max=170, actual=79), angular (max=60, actual=26).
Neighbor info: radial (max=170, actual=77), angular (max=60, actual=27).
Neighbor info: radial (max=170, actual=78), angular (max=60, actual=26).
Neighbor info: radial (max=170, actual=78), angular (max=60, actual=28).
Neighbor info: radial (max=170, actual=80), angular (max=60, actual=28).
Neighbor info: radial (max=170, actual=78), angular (max=60, actual=26).
Neighbor info: radial (max=170, actual=79), angular (max=60, actual=28).
Neighbor info: radial (max=170, actual=79), angular (max=60, actual=27).
Neighbor info: radial (max=170, actual=79), angular (max=60, actual=28).
Neighbor info: radial (max=170, actual=78), angular (max=60, actual=28).
Neighbor info: radial (max=170, actual=80), angular (max=60, actual=27).
Neighbor info: radial (max=170, actual=78), angular (max=60, actual=28).
Neighbor info: radial (max=170, actual=76), angular (max=60, actual=27).
Neighbor info: radial (max=170, actual=79), angular (max=60, actual=28).
Neighbor info: radial (max=170, actual=78), angular (max=60, actual=27).
Neighbor info: radial (max=170, actual=78), angular (max=60, actual=27).
Neighbor info: radial (max=170, actual=79), angular (max=60, actual=27).
Neighbor info: radial (max=170, actual=79), angular (max=60, actual=27).
Neighbor info: radial (max=170, actual=79), angular (max=60, actual=28).
Neighbor info: radial (max=170, actual=79), angular (max=60, actual=27).
Neighbor info: radial (max=170, actual=79), angular (max=60, actual=27).
Neighbor info: radial (max=170, actual=79), angular (max=60, actual=27).
Neighbor info: radial (max=170, actual=77), angular (max=60, actual=26).
Neighbor info: radial (max=170, actual=80), angular (max=60, actual=27).
Neighbor info: radial (max=170, actual=81), angular (max=60, actual=28).
Neighbor info: radial (max=170, actual=79), angular (max=60, actual=28).
Neighbor info: radial (max=170, actual=78), angular (max=60, actual=28).
Neighbor info: radial (max=170, actual=81), angular (max=60, actual=27).
Neighbor info: radial (max=170, actual=79), angular (max=60, actual=28).
Neighbor info: radial (max=170, actual=79), angular (max=60, actual=28).
Neighbor info: radial (max=170, actual=78), angular (max=60, actual=27).
Neighbor info: radial (max=170, actual=78), angular (max=60, actual=28).
Neighbor info: radial (max=170, actual=80), angular (max=60, actual=27).
Neighbor info: radial (max=170, actual=78), angular (max=60, actual=27).
Neighbor info: radial (max=170, actual=80), angular (max=60, actual=26).
Neighbor info: radial (max=170, actual=79), angular (max=60, actual=28).
Neighbor info: radial (max=170, actual=78), angular (max=60, actual=28).
Neighbor info: radial (max=170, actual=78), angular (max=60, actual=26).
Neighbor info: radial (max=170, actual=80), angular (max=60, actual=27).
    4000000 steps completed.

---------------------------------------------------------------
Time used for this run = 60150 second.
Speed of this run = 4.90294e+06 atom*step/second.
---------------------------------------------------------------


---------------------------------------------------------------
Finished executing the commands in run.in.
---------------------------------------------------------------


---------------------------------------------------------------
Time used = 65693.483283 s.
---------------------------------------------------------------


---------------------------------------------------------------
Finished running GPUMD.
---------------------------------------------------------------

Wed Mar  1 05:52:16 2023       
+-----------------------------------------------------------------------------+
| NVIDIA-SMI 515.65.01    Driver Version: 515.65.01    CUDA Version: 11.7     |
|-------------------------------+----------------------+----------------------+
| GPU  Name        Persistence-M| Bus-Id        Disp.A | Volatile Uncorr. ECC |
| Fan  Temp  Perf  Pwr:Usage/Cap|         Memory-Usage | GPU-Util  Compute M. |
|                               |                      |               MIG M. |
|===============================+======================+======================|
|   0  NVIDIA GeForce ...  On   | 00000000:01:00.0 Off |                  Off |
| 86%   70C    P0   396W / 480W |    347MiB / 24564MiB |    100%      Default |
|                               |                      |                  N/A |
+-------------------------------+----------------------+----------------------+
                                                                               
+-----------------------------------------------------------------------------+
| Processes:                                                                  |
|  GPU   GI   CI        PID   Type   Process name                  GPU Memory |
|        ID   ID                                                   Usage      |
|=============================================================================|
|    0   N/A  N/A     26188      G   /usr/lib/xorg/Xorg                 84MiB |
|    0   N/A  N/A     26334      G   /usr/bin/gnome-shell               13MiB |
|    0   N/A  N/A     27694    C+G   ...024473795736352891,131072      245MiB |
+-----------------------------------------------------------------------------+
   
******************End running GPUMD tasks********************
   
20230228-11:37 ---> 20230301-05:52 Total:18  hours
